LAMMPS (3 Aug 2022)
# Compute elastic constant tensor for a crystal
#
# Written by Aidan Thompson (Sandia, athomps@sandia.gov)
#
#  This script uses the following three include files.
#
#   init.mod      (must be modified for different crystal structures)
# 	       	  Define units, deformation parameters and initial
#		  configuration of the atoms and simulation cell.
#
#
#   potential.mod    (must be modified for different pair styles)
# 		     Define pair style and other attributes
#		     not stored in restart file
#
#
#   displace.mod    (displace.mod should not need to be modified)
# 		    Perform positive and negative box displacements
# 		    in direction ${dir} and size ${up}.
# 		    It uses the resultant changes
#		    in stress to compute one
# 		    row of the elastic stiffness tensor
#
#		    Inputs variables:
#		    	   dir = the Voigt deformation component
#		    		    (1,2,3,4,5,6)
#		    Global constants:
#       	    	   up = the deformation magnitude (strain units)
#       		   cfac = conversion from LAMMPS pressure units to
#               	   output units for elastic constants
#
#
#  To run this on a different system, it should only be necessary to
#  modify the files init.mod and potential.mod. In order to calculate
#  the elastic constants correctly, care must be taken to specify
#  the correct units in init.mod (units, cfac and cunits). It is also
#  important to verify that the minimization of energy w.r.t atom
#  positions in the deformed cell is fully converged.
#  One indication of this is that the elastic constants are insensitive
#  to the choice of the variable ${up} in init.mod. Another is to check
#  the final max and two-norm forces reported in the log file. If you know
#  that minimization is not required, you can set maxiter = 0.0 in
#  init.mod.
#

include init.mod
# NOTE: This script can be modified for different atomic structures,
# units, etc. See in.elastic for more info.
#

# Define the finite deformation size. Try several values of this
# variable to verify that results do not depend on it.
variable up equal 1.0e-5

# Define the amount of random jiggle for atoms
# This prevents atoms from staying on saddle points
variable atomjiggle equal 1.0e-5

# Uncomment one of these blocks, depending on what units
# you are using in LAMMPS and for output

# metal units, elastic constants in eV/A^3
#units		metal
#variable cfac equal 6.2414e-7
#variable cunits string eV/A^3

# metal units, elastic constants in GPa
units		metal
variable cfac equal 1.0e-4
variable cunits string GPa

# real units, elastic constants in GPa
#units		real
#variable cfac equal 1.01325e-4
#variable cunits string GPa

# Define minimization parameters
variable etol equal 0.0
variable ftol equal 1.0e-10
variable maxiter equal 100
variable maxeval equal 1000
variable dmax equal 1.0e-2

# generate the box and atom positions using a diamond lattice
variable latparam equal ${lat}
variable latparam equal 2.841679
variable        box_length equal 4 # ------half box size in lattice parameter units

variable        xdim_1 equal -1*(${latparam}*${box_length})*sqrt(1)-0.001
variable        xdim_1 equal -1*(2.841679*${box_length})*sqrt(1)-0.001
variable        xdim_1 equal -1*(2.841679*4)*sqrt(1)-0.001
variable        ydim_1 equal -1*(${latparam}*${box_length})*sqrt(1)-0.001
variable        ydim_1 equal -1*(2.841679*${box_length})*sqrt(1)-0.001
variable        ydim_1 equal -1*(2.841679*4)*sqrt(1)-0.001
variable        zdim_1 equal -1*(${latparam}*${box_length})*sqrt(1)-0.001
variable        zdim_1 equal -1*(2.841679*${box_length})*sqrt(1)-0.001
variable        zdim_1 equal -1*(2.841679*4)*sqrt(1)-0.001
variable        xdim_2 equal (${latparam}*${box_length})*sqrt(1)
variable        xdim_2 equal (2.841679*${box_length})*sqrt(1)
variable        xdim_2 equal (2.841679*4)*sqrt(1)
variable        ydim_2 equal (${latparam}*${box_length})*sqrt(1)
variable        ydim_2 equal (2.841679*${box_length})*sqrt(1)
variable        ydim_2 equal (2.841679*4)*sqrt(1)
variable        zdim_2 equal (${latparam}*${box_length})*sqrt(1)
variable        zdim_2 equal (2.841679*${box_length})*sqrt(1)
variable        zdim_2 equal (2.841679*4)*sqrt(1)
boundary	p p p

lattice         bcc ${latparam} orient x 0 0 1 orient y 1 0 0 orient z 0 1 0
lattice         bcc 2.841679 orient x 0 0 1 orient y 1 0 0 orient z 0 1 0
Lattice spacing in x,y,z = 2.841679 2.841679 2.841679
region		box block ${xdim_1} ${xdim_2} ${ydim_1} ${ydim_2} ${zdim_1} ${zdim_2} units box
region		box block -11.367716 ${xdim_2} ${ydim_1} ${ydim_2} ${zdim_1} ${zdim_2} units box
region		box block -11.367716 11.366716 ${ydim_1} ${ydim_2} ${zdim_1} ${zdim_2} units box
region		box block -11.367716 11.366716 -11.367716 ${ydim_2} ${zdim_1} ${zdim_2} units box
region		box block -11.367716 11.366716 -11.367716 11.366716 ${zdim_1} ${zdim_2} units box
region		box block -11.367716 11.366716 -11.367716 11.366716 -11.367716 ${zdim_2} units box
region		box block -11.367716 11.366716 -11.367716 11.366716 -11.367716 11.366716 units box
create_box	1 box
Created orthogonal box = (-11.367716 -11.367716 -11.367716) to (11.366716 11.366716 11.366716)
  2 by 4 by 4 MPI processor grid
create_atoms	1 box
Created 1024 atoms
  using lattice units in orthogonal box = (-11.367716 -11.367716 -11.367716) to (11.366716 11.366716 11.366716)
  create_atoms CPU = 0.001 seconds

change_box all triclinic
Changing box ...
  triclinic box = (-11.367716 -11.367716 -11.367716) to (11.366716 11.366716 11.366716) with tilt (0 0 0)
# Need to set mass to something, just to satisfy LAMMPS
mass 1 1.0e-20
#mass 2 1.0e-20
#mass 3 1.0e-20
include ../potential.in
#pair_style      aenet
#pair_coeff      * * v-1 Fe 15tw-15tw.nn Fe
#----------------------NEUip
pair_style  pace
ACE version: 2021.10.25
Recursive evaluator is used
pair_coeff * * /scratch-shared/zhanglei1/ace_julia_training_slovers/N4.D14_rrqr/Fe_ace_N4_D14_R5.yace Fe
Loading /scratch-shared/zhanglei1/ace_julia_training_slovers/N4.D14_rrqr/Fe_ace_N4_D14_R5.yace
Total number of basis functions
	Fe: 14 (r=1) 2411 (r>1)
Mapping LAMMPS atom type #1(Fe) -> ACE species type #0
#pair_coeff  * * /data/lei/train_ace_2021_12_08/training_ace_iron_2022_08_12_v2/interim_potential_0.yace Fe
#pair_coeff  * * /data/lei/train_ace_2021_12_08/training_ace_iron_2022_08_12_v3_iter2000/interim_potential_0.yace Fe
#pair_coeff  * * /data/lei/train_ace_2021_12_08/training_ace_iron_2022_08_16/interim_potential_0.yace Fe
#pair_coeff  * * /data/lei/ace_iron/ace_Cas_suggested/Fe_ace_N3_D10_R5.yace Fe
#pair_coeff  * * /data/lei/ace_iron/ace_Cas_suggested_updated_1/Fe_ace_N3_D10_R5.yace Fe
#pair_coeff  * * /data/lei/ace_iron/ace_tuning_weights/Fe_ace_N3_D10_R5.yace Fe
#pair_coeff  * * /data/lei/ace_iron/ace_tuning_weights/Fe_ace_N3_D16_R5.yace Fe
#pair_coeff  * * /data/lei/ace_iron/ace_tuning_weights/Fe_ace_N4_D12_R5.yace Fe
#pair_coeff  * * /home/lei/ACEproject/ace_models/Fe_ace_N4_D18_R5.yace Fe
#pair_coeff  * * /home/lei/ACEproject/ace_models/Fe_ace_N3_D18_R5.yace Fe
#pair_coeff  * * /data/lei/train_ace_2021_12_08/training_ace_iron_2022_08_12_v3_iter2000/output_potential.yace Fe
# Addition
#newton  off

#pair_style	allegro
#pair_coeff	* * /home/zhanglei1/automatic_workflow_IAP_v1_2021_12_01/allegro-single-deployed_2022_09_22/allegro-single-deployed.pth Fe

# ---------------------GAP--------------------
#pair_style      quip
#pair_coeff      * * /scratch-shared/zhanglei1/GAP_training_OgataDBs/M4700_l8n8_R6.5/gap_Fe_test.xml "Potential xml_label=GAP_2022_10_10_120_21_47_54_69" 26

#pair_coeff      * * /scratch-shared/zhanglei1/GAP_training/M3000_l6n6/gap_Fe_test.xml "Potential xml_label=GAP_2022_10_3_120_16_55_34_368" 26
#pair_coeff      * * /home/lei/gap_training/l_6_n_12_allNewData/gap_Fe_test.xml "Potential xml_label=GAP_2021_12_1_60_0_17_25_709" 26
#pair_coeff      * * /home/lei/gap_training_2021_12_13/l_6_n_12_allNewData_turboSOAP/gap_Fe_test.xml "Potential xml_label=GAP_2021_12_12_60_17_6_15_829" 26 # TurboSOAP descriptor
#pair_coeff      * * /home/lei/gap_training_2021_12_13/l_6_n_12_allNewData_doubleSOAP/gap_Fe_test.xml "Potential xml_label=GAP_2021_12_14_60_8_16_28_553" 26
#pair_coeff      * * /home/lei/gap_training_2021_12_13/l_6_n_12_newdata_2021_12_16/gap_Fe_test.xml "Potential xml_label=GAP_2021_12_17_60_2_59_46_132" 26
#pair_coeff      * * /home/lei/gap_training_2021_12_13/l_6_n_12_newdata_doubleSOAP_2021_12_17/gap_Fe_test.xml   "Potential xml_label=GAP_2021_12_17_60_21_56_31_840" 26
#pair_coeff      * * /data/lei/gap_training_2021_12_13/l_6_n_12_newdata_doubleSOAP_2021_12_21/gap_Fe_test.xml   "Potential xml_label=GAP_2021_12_21_60_14_55_52_923" 26
#pair_coeff      * * /home/lei/gap_training_2021_12_13/l_6_n_12_newdata_doubleSOAP_Rcut6_2021_12_21/gap_Fe_test.xml   "Potential xml_label=GAP_2021_12_21_60_22_39_47_189" 26
#pair_coeff      * * /data/lei/gap_training_addCracks_2022_01_25/doubSOAP_R5_2022_01_25/gap_Fe_test.xml   "Potential xml_label=GAP_2022_1_26_60_7_10_9_751" 26

#pair_coeff      * * /home/p301616/gap_trainedOn_nieuwpoort/doubSOAP_R5_2022_01_28/gap_Fe_test.xml   "Potential xml_label=GAP_2022_1_29_60_3_44_50_986" 26

#pair_coeff      * * /home/lei/gap_training_addCracks_2022_01_25/doubSOAP_R5_2022_02_10_iter3/gap_Fe_test.xml   "Potential xml_label=GAP_2022_2_11_60_3_6_24_998" 26
#pair_coeff      * * /home/lei/gap_training_addCracks/doubSOAP_R5_2022_02_23_iter8/gap_Fe_test.xml   "Potential xml_label=GAP_2022_2_23_60_14_2_51_919" 26
#pair_coeff      * * /home/lei/gap_training_addCracks/turboSOAP_iter10/gap_Fe_test.xml   "Potential xml_label=GAP_2022_3_8_60_9_8_45_147" 26
#pair_coeff      * * /home/lei/gap_training_addCracks/turboSOAP_iter11/gap_Fe_test.xml   "Potential xml_label=GAP_2022_3_8_60_14_22_10_147" 26
#pair_coeff      * * /home/lei/gap_training_addCracks/doubSOAP_R5_2022_03_08_iter11/gap_Fe_test.xml   "Potential xml_label=GAP_2022_3_8_60_13_19_13_884" 26
#pair_coeff      * * /home/lei/gap_training_addCracks/turboSOAP_iter11_2/gap_Fe_test.xml   "Potential xml_label=GAP_2022_3_9_60_20_54_41_133" 26
#pair_coeff      * * /home/lei/gap_training_addCracks/turboSOAP_iter11/gap_Fe_test.xml   "Potential xml_label=GAP_2022_3_10_60_5_9_4_798" 26
#pair_coeff      * * /home/lei/gap_training_addCracks/turboSOAP_iter11_basis10/gap_Fe_test.xml   "Potential xml_label=GAP_2022_3_10_60_10_51_48_731" 26
#pair_coeff      * * /home/lei/gap_training_addCracks/doubleturboSOAP_iter11/gap_Fe_test.xml   "Potential xml_label=GAP_2022_3_9_60_23_12_29_37" 26
#pair_coeff      * * /home/lei/gap_training_addCracks/turboSOAP_iter11_compressfile/gap_Fe_test.xml   "Potential xml_label=GAP_2022_3_10_60_11_56_19_400" 26
#pair_coeff      * * /home/lei/gap_snellius/doubleturboSOAP_iter11_basis8/gap_Fe_test.xml   "Potential xml_label=GAP_2022_3_10_60_18_34_37_91" 26
#pair_coeff      * * /home/lei/gap_snellius/doubleturboSOAP_iter0_basis8/gap_Fe_test.xml "Potential xml_label=GAP_2022_3_11_60_22_7_9_623" 26
#pair_coeff      * * /home/lei/gap_snellius/doubleturboSOAP_iter0_hcp_basis8/gap_Fe_test.xml "Potential xml_label=GAP_2022_3_28_120_15_22_12_14" 26
#pair_coeff      * * /home/lei/gap_snellius/final/gap_Fe_test.xml "Potential xml_label=GAP_2022_5_28_120_3_13_35_983" 26
#---------------------------------------------

#---------------------ADP---------------------
# pair_style adp
# pair_coeff * * /home/lei/crackTip_ADP/Fe_nmFe.2021.adp.alloy Fe
#---------------------------------------------
include neigh.mod
# Setup neighbor style
neighbor 1.0 nsq
neigh_modify once no every 1 delay 0 check yes

# Setup minimization style
min_style            cg
min_modify           dmax ${dmax} line quadratic
min_modify           dmax 0.01 line quadratic

# Setup output
thermo          1
thermo_style custom step temp pe press pxx pyy pzz pxy pxz pyz lx ly lz vol
thermo_modify norm no

# Compute initial state
fix 3 all box/relax  aniso 0.0
minimize ${etol} ${ftol} ${maxiter} ${maxeval}
minimize 0 ${ftol} ${maxiter} ${maxeval}
minimize 0 1e-10 ${maxiter} ${maxeval}
minimize 0 1e-10 100 ${maxeval}
minimize 0 1e-10 100 1000
Neighbor list info ...
  update every 1 steps, delay 0 steps, check yes
  max neighbors/atom: 2000, page size: 100000
  master list distance cutoff = 6
  ghost atom cutoff = 6
  1 neighbor lists, perpetual/occasional/extra = 1 0 0
  (1) pair pace, perpetual
      attributes: full, newton on
      pair build: full/nsq
      stencil: none
      bin: none
Per MPI rank memory allocation (min/avg/max) = 4.209 | 4.209 | 4.209 Mbytes
   Step          Temp          PotEng         Press           Pxx            Pyy            Pzz            Pxy            Pxz            Pyz             Lx             Ly             Lz           Volume    
         0   0             -3543999.6      140.68493      140.68493      140.68493      140.68493     -0.00027597686 -0.00027597686 -0.00027597685  22.734432      22.734432      22.734432      11750.391    
         1   0             -3543999.6     -0.74081134    -0.74081134    -0.74081134    -0.74081134    -0.00027326262 -0.00027326262 -0.00027326263  22.735106      22.735106      22.735106      11751.436    
         2   0             -3543999.6     -2.6250549     -2.6250549     -2.6250549     -2.6250549     -1.5940796e-05 -1.5940789e-05 -1.5940768e-05  22.735113      22.735113      22.735113      11751.448    
         3   0             -3543999.6      2.6277034      2.6277034      2.6277034      2.6277034     -1.5934395e-05 -1.593438e-05  -1.5934386e-05  22.735088      22.735088      22.735088      11751.409    
         4   0             -3543999.6      10.128576      10.128568      10.128568      10.128592     -8.5734791e-06 -8.5734633e-06 -8.5734765e-06  22.735052      22.735052      22.735052      11751.353    
         5   0             -3543999.6     -0.28777164    -0.2877766     -0.2877766     -0.28776173    -8.6507493e-06 -8.6507544e-06 -8.6507702e-06  22.735102      22.735102      22.735102      11751.43     
         6   0             -3543999.6     -5.6946341     -5.684124      -5.6841159     -5.7156625     -7.8609673e-06 -7.8609564e-06 -7.8609302e-06  22.735127      22.735127      22.735128      11751.47     
         7   0             -3543999.6      0.22752588     0.23406727     0.23407227     0.21443811    -7.9285904e-06 -7.9285818e-06 -7.9285712e-06  22.735099      22.735099      22.735099      11751.426    
         8   0             -3543999.6     -1.6053963     -14.108554     -14.118113      23.410478     -3.0043925e-06 -3.0057582e-06 -3.0057542e-06  22.735271      22.735272      22.734781      11751.439    
         9   0             -3543999.6      3.0962774      2.9206807      2.9205456      3.4476059     -5.5933004e-06 -5.5935508e-06 -5.5935415e-06  22.735088      22.735088      22.735081      11751.405    
        10   0             -3543999.6     -0.255306      -0.21685067    -0.21682177    -0.33224556    -5.6210203e-06 -5.6212614e-06 -5.6212532e-06  22.735101      22.735101      22.735103      11751.429    
        11   0             -3543999.6      1.5870348      12.294355      12.303523     -19.836774     -7.8129587e-07 -7.8108703e-07 -7.8110308e-07  22.734953      22.734953      22.735373      11751.416    
        12   0             -3543999.6     -3.1298372     -2.9041017     -2.9039084     -3.5815014     -2.1622163e-06 -2.1623855e-06 -2.1623902e-06  22.735112      22.735112      22.735121      11751.451    
        13   0             -3543999.6      0.040422332    0.033451336    0.03344539     0.054370269   -2.1849098e-06 -2.185113e-06  -2.1851295e-06  22.7351        22.7351        22.7351        11751.427    
        14   0             -3543999.6     -0.40816036    -1.4629892     -1.4639133      1.7024215     -9.6288715e-09 -9.605228e-09  -9.6452342e-09  22.735116      22.735116      22.735075      11751.43     
        15   0             -3543999.6      0.59949636     0.48397483     0.48387361     0.83064064    -1.5204698e-08 -1.5192664e-08 -1.5218382e-08  22.735099      22.735099      22.735094      11751.423    
        16   0             -3543999.6     -0.0039665673  -0.0029346434  -0.0029337445  -0.006031314   -1.5644174e-08 -1.5631357e-08 -1.5640465e-08  22.7351        22.7351        22.7351        11751.427    
        17   0             -3543999.6      0.67566109     1.3535036      1.3541013     -0.68062163    -9.072916e-11  -8.0523265e-11 -7.5959561e-11  22.735088      22.735088      22.735115      11751.422    
        18   0             -3543999.6     -1.1191633     -0.56590945    -0.56542158    -2.2261589     -1.3019419e-08 -1.3023544e-08 -1.3007855e-08  22.735098      22.735098      22.73512       11751.436    
        19   0             -3543999.6     -0.0038003386  -0.0028375645  -0.0028367069  -0.0057267444  -4.8052577e-08 -4.8073636e-08 -4.8051457e-08  22.7351        22.7351        22.7351        11751.427    
        20   0             -3543999.6      0.5877494      0.53408073     0.53403292     0.69513454    -4.0923507e-08 -4.0941455e-08 -4.095691e-08   22.735098      22.735098      22.735096      11751.423    
        21   0             -3543999.6     -0.08895367    -0.5442718     -0.5446774      0.8220882     -2.3068264e-11 -1.6953055e-11 -4.2670233e-11  22.735107      22.735107      22.735089      11751.428    
        22   0             -3543999.6      0.0088250951   0.0080711261   0.0080704527   0.010333706   -4.8649594e-09 -4.8471133e-09 -4.8732656e-09  22.7351        22.7351        22.7351        11751.427    
        23   0             -3543999.6     -0.073468995   -0.070721713   -0.070719262   -0.07896601    -4.824128e-09  -4.8306708e-09 -4.8363963e-09  22.735101      22.735101      22.735101      11751.428    
        24   0             -3543999.6      0.019889191    0.449455       0.44983846    -0.83962589    -6.8504347e-10 -6.9672897e-10 -7.1212674e-10  22.735095      22.735095      22.735111      11751.427    
        25   0             -3543999.6      0.14339337     0.13765727     0.13765215     0.15487069    -3.2865662e-08 -3.289141e-08  -3.2851339e-08  22.7351        22.7351        22.735099      11751.426    
        26   0             -3543999.6     -0.0089705473  -0.014436562   -0.014441442    0.0019663619  -3.3159692e-08 -3.3176297e-08 -3.3174727e-08  22.7351        22.7351        22.7351        11751.427    
        27   0             -3543999.6     -0.0088648274   0.10314516     0.10324515    -0.2329848     -3.2095699e-08 -3.2119585e-08 -3.2112277e-08  22.735099      22.735099      22.735103      11751.427    
        28   0             -3543999.6      1.0483739      1.0790285      1.0790559      0.98703713    -3.6699946e-09 -3.6287094e-09 -3.6525156e-09  22.735095      22.735095      22.735096      11751.42     
        29   0             -3543999.6     -0.0033663296  -0.034777801   -0.03480583     0.059484642   -3.3075033e-09 -3.307912e-09  -3.3105193e-09  22.735101      22.735101      22.735099      11751.427    
        30   0             -3543999.6     -0.0069991628  -0.0051919291  -0.0051903171  -0.010615242   -3.3640122e-09 -3.359808e-09  -3.3621277e-09  22.7351        22.7351        22.7351        11751.427    
        31   0             -3543999.6      0.016072996    0.018286725    0.018288701    0.011643561   -3.3471917e-09 -3.353481e-09  -3.3481188e-09  22.7351        22.7351        22.7351        11751.427    
        32   0             -3543999.6      0.01548844    -0.071025989   -0.071103146    0.18859446    -1.9554517e-09 -1.9831216e-09 -1.9747623e-09  22.735101      22.735101      22.735098      11751.427    
        33   0             -3543999.6     -0.10544581    -0.11481328    -0.11482164    -0.086702502   -6.0520513e-10 -5.9432944e-10 -5.9814388e-10  22.735101      22.735101      22.735101      11751.428    
        34   0             -3543999.6     -0.00047234258  0.0022178231   0.0022202193  -0.0058550701  -5.4157066e-10 -5.3660205e-10 -5.4880977e-10  22.7351        22.7351        22.7351        11751.427    
        35   0             -3543999.6      0.003717124   -0.00038547816 -0.00038913204  0.011925982   -5.334612e-10  -5.2858341e-10 -5.3190212e-10  22.7351        22.7351        22.7351        11751.427    
        36   0             -3543999.6     -0.021509575   -0.028392392   -0.028398524   -0.0077378082  -5.1648921e-10 -5.2202923e-10 -5.2107184e-10  22.7351        22.7351        22.7351        11751.428    
        37   0             -3543999.6     -0.0053413182   0.0014117761   0.0014177219  -0.018853453   -6.9541586e-11 -5.8620488e-11 -9.392674e-11   22.7351        22.7351        22.7351        11751.427    
        38   0             -3543999.6      0.005434286    0.0073060978   0.0073077462   0.0016890139  -9.4501933e-11 -7.0377886e-11 -1.0268708e-10  22.7351        22.7351        22.7351        11751.427    
        39   0             -3543999.6     -0.00039334822 -0.00085581266 -0.0008562197   0.00053198772 -1.074627e-10  -9.0433956e-11 -6.8020352e-11  22.7351        22.7351        22.7351        11751.427    
        40   0             -3543999.6     -0.032050866   -0.018487474   -0.018475679   -0.059189445   -1.8958662e-11  1.6915214e-12 -2.8759647e-13  22.7351        22.7351        22.735101      11751.428    
        41   0             -3543999.6      0.0077218333   0.016858556    0.016866502   -0.010559558   -1.0402667e-11 -1.3172676e-11 -1.742986e-11   22.7351        22.7351        22.7351        11751.427    
        42   0             -3543999.6      1.4846074e-05 -7.8975623e-05 -7.9056585e-05  0.00020257043 -1.6109187e-11 -1.0466998e-11 -2.2701201e-11  22.7351        22.7351        22.7351        11751.427    
        43   0             -3543999.6     -0.024457024   -0.020547559   -0.020544305   -0.032279208    9.081994e-12  -1.0183186e-11 -2.3802393e-11  22.7351        22.7351        22.7351        11751.428    
        44   0             -3543999.6      0.0043464324   0.01781342     0.017824642   -0.022598765    3.9090416e-12 -1.1257889e-11 -2.0983191e-11  22.7351        22.7351        22.735101      11751.427    
        45   0             -3543999.6      0.00019020222  0.00011849643  0.00011843826  0.00033367196  6.9628622e-13  7.0801713e-12 -1.5511289e-11  22.7351        22.7351        22.7351        11751.427    
        46   0             -3543999.6     -0.0039896936  -0.003773148   -0.0037729784  -0.0044229545  -1.1310867e-11  8.6468152e-12 -2.691676e-11   22.7351        22.7351        22.7351        11751.427    
        47   0             -3543999.6      0.0012076562   0.010828504    0.010836134   -0.018041669   -1.7354177e-11 -1.5783749e-11 -7.5683284e-14  22.7351        22.7351        22.735101      11751.427    
        48   0             -3543999.6      0.00090968441  0.00082607455  0.00082601203  0.0010769667   2.7018933e-12 -1.9507367e-11 -1.659356e-11   22.7351        22.7351        22.7351        11751.427    
        49   0             -3543999.6     -0.00069152212 -0.00074089206 -0.00074093013 -0.00059274416 -1.7607716e-11  8.3970604e-12  1.313105e-11   22.7351        22.7351        22.7351        11751.427    
        50   0             -3543999.6      6.3716582e-05  0.0055067041   0.0055107814  -0.010826336   -1.197688e-11  -2.1478916e-11 -1.0652422e-11  22.7351        22.7351        22.7351        11751.427    
        51   0             -3543999.6      0.0047620907   0.0046935913   0.0046935429   0.0048991378   4.2723214e-12 -2.9251589e-12  4.378278e-12   22.7351        22.7351        22.7351        11751.427    
        52   0             -3543999.6     -0.00012408716 -0.00025221923 -0.0002523138   0.00013227155  1.8239672e-12 -2.6564833e-12 -1.4463076e-11  22.7351        22.7351        22.7351        11751.427    
        53   0             -3543999.6     -0.00022726562  0.0020409131   0.0020425849  -0.0047652949   2.2792021e-11 -9.7555754e-12 -1.4160343e-11  22.7351        22.7351        22.7351        11751.427    
        54   0             -3543999.6      0.017385896    0.018117757    0.018118298    0.015921634   -4.2004223e-12 -4.3101631e-12  3.0682004e-11  22.7351        22.7351        22.7351        11751.427    
        55   0             -3543999.6     -2.922211e-05  -0.0003620557  -0.0003623003   0.00063668967 -1.405817e-11   9.1652457e-12 -4.839946e-12   22.7351        22.7351        22.7351        11751.427    
        56   0             -3543999.6     -0.00019841222  0.00045276679  0.00045324504 -0.0015012485   2.0169595e-11 -1.1424392e-11 -5.0897009e-12  22.7351        22.7351        22.7351        11751.427    
        57   0             -3543999.6      0.0069357603   0.0076274926   0.0076280051   0.0055517831  -8.7414194e-13 -1.9439252e-11  5.1691683e-12  22.7351        22.7351        22.7351        11751.427    
        58   0             -3543999.6      9.7158796e-05 -0.00067599705 -0.00067654655  0.00164402    -1.2026074e-11  5.2864774e-12  4.9269818e-12  22.7351        22.7351        22.7351        11751.427    
        59   0             -3543999.6     -0.00037957426 -0.00014957922 -0.00014941562 -0.00083972794 -1.1715772e-11  2.8305548e-12  4.9496868e-12  22.7351        22.7351        22.7351        11751.427    
        60   0             -3543999.6      0.0014959644   0.0018781201   0.0018783913   0.00073138174  9.3506698e-12 -1.2166088e-11  2.3832666e-11  22.7351        22.7351        22.7351        11751.427    
        61   0             -3543999.6      0.00055475763 -0.00095760351 -0.0009587041   0.0035805805   3.386827e-12  -1.5533994e-11  2.2152497e-11  22.7351        22.7351        22.7351        11751.427    
        62   0             -3543999.6     -0.0010079191  -0.0011027807  -0.0011028492  -0.00081812751 -6.4709208e-12 -2.2459015e-11  1.4039249e-12  22.7351        22.7351        22.7351        11751.427    
        63   0             -3543999.6      0.00023959835  0.00038395414  0.00038405904 -4.9218142e-05  1.5178283e-11 -2.5141987e-11 -8.6657361e-13  22.7351        22.7351        22.7351        11751.427    
        64   0             -3543999.6      0.0018059466  -0.00040619653 -0.00040780363  0.0062318398  -1.6510309e-11 -1.2843453e-11 -1.6839531e-12  22.7351        22.7351        22.7351        11751.427    
        65   0             -3543999.6     -0.0020965339  -0.0029170302  -0.0029176264  -0.00045494524  2.9516481e-13  2.4937642e-12 -2.5013325e-12  22.7351        22.7351        22.7351        11751.427    
        66   0             -3543999.6      1.883441e-05   7.8387391e-05  7.8430853e-05 -0.00010031501  1.7993701e-11 -3.5079202e-12 -7.2731636e-12  22.7351        22.7351        22.7351        11751.427    
        67   0             -3543999.6      0.0026426136   0.0011917854   0.001190718    0.0055453375  -5.9373537e-12  6.6071507e-12 -2.8763432e-11  22.7351        22.7351        22.7351        11751.427    
        68   0             -3543999.6     -0.0019375593  -0.003668279   -0.0036695513   0.0015251524   5.5286639e-12  3.6025243e-12  1.6968192e-11  22.7351        22.7351        22.7351        11751.427    
        69   0             -3543999.6     -4.8991962e-05 -2.0767644e-06 -2.0420024e-06 -0.00014285712 -1.0039388e-11 -2.0986975e-11 -8.4765278e-13  22.7351        22.7351        22.7351        11751.427    
        70   0             -3543999.6      0.00093899706  0.00073705735  0.00073690733  0.0013430265   2.243631e-11   3.7690276e-12 -1.0285358e-11  22.7351        22.7351        22.7351        11751.427    
        71   0             -3543999.6     -0.00055057208 -0.0016799807  -0.0016808193   0.0017090838  -1.0217243e-12  5.6081314e-12  1.0463214e-11  22.7351        22.7351        22.7351        11751.427    
        72   0             -3543999.6     -0.00022441722 -0.0001513761  -0.0001513201  -0.00037055546 -6.7093232e-12  3.7425384e-12 -1.2752633e-12  22.7351        22.7351        22.7351        11751.427    
        73   0             -3543999.6      0.00019933334  0.00022768362  0.00022770482  0.00014261157  1.589349e-13  -2.4332176e-12 -3.2278921e-12  22.7351        22.7351        22.7351        11751.427    
        74   0             -3543999.6     -7.9711112e-05 -0.00051207196 -0.00051240186  0.00078534049  5.8881595e-12 -5.8957279e-12  2.9289431e-12  22.7351        22.7351        22.7351        11751.427    
        75   0             -3543999.6     -0.0012037144  -0.0010530124  -0.0010528814  -0.0015052492  -1.4190616e-12  5.8692387e-12 -4.4123355e-12  22.7351        22.7351        22.7351        11751.427    
        76   0             -3543999.6      6.5861397e-05  0.00018131329  0.00018141164 -0.00016514074 -1.7891528e-11 -2.4332176e-12 -1.3006172e-11  22.7351        22.7351        22.7351        11751.427    
        77   0             -3543999.6      3.967505e-06  -0.00019285939 -0.00019302789  0.0003977898  -2.6886487e-11  2.7605478e-11 -8.5559953e-12  22.7351        22.7351        22.7351        11751.427    
        78   0             -3543999.6     -0.003850414   -0.0037716353  -0.0037715434  -0.0040080634  -4.2193431e-12  1.3206733e-12  1.2321239e-11  22.7351        22.7351        22.7351        11751.427    
        79   0             -3543999.6      2.9895729e-05  0.00040193202  0.00040228529 -0.00071453012  6.7812223e-12 -4.4085513e-12  1.0255085e-12  22.7351        22.7351        22.7351        11751.427    
        80   0             -3543999.6      6.3027673e-05 -3.910816e-05  -3.9205424e-05  0.0002673966   1.2082836e-11  1.2226635e-11  1.9575482e-11  22.7351        22.7351        22.7351        11751.427    
        81   0             -3543999.6     -0.0015406195  -0.0016502446  -0.0016503474  -0.0013212666  -1.4716615e-11 -6.6790498e-12  1.733904e-11   22.7351        22.7351        22.7351        11751.427    
        82   0             -3543999.6     -0.00011083472  0.0010360852   0.001037208   -0.0024057974   1.7051444e-11 -2.442678e-11  -9.6042088e-12  22.7351        22.7351        22.7351        11751.427    
        83   0             -3543999.6      0.00036018708  0.00032946847  0.00032943802  0.00042165477 -6.0054686e-12 -7.0877396e-12 -4.7642628e-12  22.7351        22.7351        22.7351        11751.427    
        84   0             -3543999.6     -0.00032658378 -0.00040217987 -0.00040225379 -0.00017531767 -1.5870785e-11  3.4662944e-12 -1.9711711e-11  22.7351        22.7351        22.7351        11751.427    
        85   0             -3543999.6     -0.00074108707  0.001541696    0.0015439645  -0.0053089217  -1.267695e-12  -5.6762463e-13 -5.1540317e-12  22.7351        22.7351        22.7351        11751.427    
        86   0             -3543999.6      0.0018376265   0.0021105645   0.0021108352   0.0012914798  -9.7631437e-13 -1.7978564e-11  2.8154182e-12  22.7351        22.7351        22.7351        11751.427    
        87   0             -3543999.6     -5.1681418e-05 -0.00010238041 -0.00010243146  4.9767622e-05  1.2915352e-11  9.309044e-12   6.5957982e-12  22.7351        22.7351        22.7351        11751.427    
        88   0             -3543999.6     -0.0014393007   0.00043367883  0.00043559521 -0.0051871763   3.9128258e-12 -1.3051582e-11  1.2487742e-13  22.7351        22.7351        22.7351        11751.427    
        89   0             -3543999.6      0.0039278427   0.005406929    0.005408441    0.00096815813  1.238557e-11  -1.604864e-11   1.8958663e-12  22.7351        22.7351        22.7351        11751.427    
        90   0             -3543999.6      2.0523551e-05 -4.4658001e-05 -4.4726492e-05  0.00015095515  9.3203965e-12  7.8407883e-12  3.5381935e-12  22.7351        22.7351        22.7351        11751.427    
        91   0             -3543999.6     -0.0010416487  -0.00044670343 -0.00044607351 -0.0022321693   9.9145102e-13 -2.2780669e-12 -1.0417804e-11  22.7351        22.7351        22.7351        11751.427    
        92   0             -3543999.6      0.0014737003   0.0026811259   0.0026824004  -0.00094242542  6.9552938e-12  3.9733724e-12  7.8824141e-12  22.7351        22.7351        22.7351        11751.427    
        93   0             -3543999.6      0.00013266371  1.8937938e-05  1.8809122e-05  0.00036024406  1.9000289e-11  1.0137776e-11 -1.8349412e-11  22.7351        22.7351        22.7351        11751.427    
        94   0             -3543999.6     -0.0004408192  -0.00038899702 -0.00038893778 -0.00054452279  4.0074299e-12  5.2826932e-12 -6.8304164e-12  22.7351        22.7351        22.7351        11751.427    
        95   0             -3543999.6      0.00027194444  0.00075767533  0.00075822697 -0.00070006897 -1.9624676e-11 -7.3412786e-12  3.5041361e-12  22.7351        22.7351        22.7351        11751.427    
        96   0             -3543999.6      0.00051209594  0.00031740096  0.00031717868  0.00090170818 -1.5889706e-11 -7.7613208e-12 -8.3365138e-12  22.7351        22.7351        22.7351        11751.427    
        97   0             -3543999.6     -0.00016083659 -0.0002695923  -0.00026971679  5.679931e-05   3.4057478e-13  4.9686076e-12 -7.7007742e-12  22.7351        22.7351        22.7351        11751.427    
        98   0             -3543999.6      3.3700046e-05  0.00019075177  0.00019093167 -0.0002805833  -8.6960094e-12  1.613946e-11   1.1276809e-12  22.7351        22.7351        22.7351        11751.427    
        99   0             -3543999.6      0.0015798384   0.0013214599   0.0013211447   0.0020969106  -1.5511289e-11 -3.2165396e-12 -2.1342686e-12  22.7351        22.7351        22.7351        11751.427    
       100   0             -3543999.6     -8.2021575e-05 -0.00029223919 -0.00029249409  0.00033866855  1.1276809e-11 -2.7272472e-11  1.8039111e-11  22.7351        22.7351        22.7351        11751.427    
Loop time of 1.01946 on 32 procs for 100 steps with 1024 atoms

99.4% CPU use with 32 MPI tasks x no OpenMP threads

Minimization stats:
  Stopping criterion = max iterations
  Energy initial, next-to-last, final = 
     -3543999.59471784  -3543999.59536088  -3543999.59536088
  Force two-norm initial, final = 1.7905382 4.3010245e-06
  Force max component initial, final = 1.0317858 2.4839472e-06
  Final line search alpha, max atom move = 1 2.4839472e-06
  Iterations, force evaluations = 100 200

MPI task timing breakdown:
Section |  min time  |  avg time  |  max time  |%varavg| %total
---------------------------------------------------------------
Pair    | 0.97427    | 0.98069    | 1.0022     |   0.5 | 96.20
Neigh   | 0          | 0          | 0          |   0.0 |  0.00
Comm    | 0.0081796  | 0.029364   | 0.03587    |   2.9 |  2.88
Output  | 0.0024755  | 0.0025086  | 0.0028714  |   0.1 |  0.25
Modify  | 0          | 0          | 0          |   0.0 |  0.00
Other   |            | 0.006899   |            |       |  0.68

Nlocal:             32 ave          32 max          32 min
Histogram: 32 0 0 0 0 0 0 0 0 0
Nghost:            697 ave         697 max         697 min
Histogram: 32 0 0 0 0 0 0 0 0 0
Neighs:              0 ave           0 max           0 min
Histogram: 32 0 0 0 0 0 0 0 0 0
FullNghs:         2048 ave        2048 max        2048 min
Histogram: 32 0 0 0 0 0 0 0 0 0

Total # of neighbors = 65536
Ave neighs/atom = 64
Neighbor list builds = 0
Dangerous builds = 0

variable tmp equal pxx
variable pxx0 equal ${tmp}
variable pxx0 equal -0.000292239189689401
variable tmp equal pyy
variable pyy0 equal ${tmp}
variable pyy0 equal -0.00029249408776705
variable tmp equal pzz
variable pzz0 equal ${tmp}
variable pzz0 equal 0.000338668551224838
variable tmp equal pyz
variable pyz0 equal ${tmp}
variable pyz0 equal 1.80391108295274e-11
variable tmp equal pxz
variable pxz0 equal ${tmp}
variable pxz0 equal -2.72724715226356e-11
variable tmp equal pxy
variable pxy0 equal ${tmp}
variable pxy0 equal 1.12768093710912e-11

variable tmp equal lx
variable lx0 equal ${tmp}
variable lx0 equal 22.7351002585428
variable tmp equal ly
variable ly0 equal ${tmp}
variable ly0 equal 22.7351002585461
variable tmp equal lz
variable lz0 equal ${tmp}
variable lz0 equal 22.7351002502945

# These formulas define the derivatives w.r.t. strain components
# Constants uses $, variables use v_
variable d1 equal -(v_pxx1-${pxx0})/(v_delta/v_len0)*${cfac}
variable d1 equal -(v_pxx1--0.000292239189689401)/(v_delta/v_len0)*${cfac}
variable d1 equal -(v_pxx1--0.000292239189689401)/(v_delta/v_len0)*0.0001
variable d2 equal -(v_pyy1-${pyy0})/(v_delta/v_len0)*${cfac}
variable d2 equal -(v_pyy1--0.00029249408776705)/(v_delta/v_len0)*${cfac}
variable d2 equal -(v_pyy1--0.00029249408776705)/(v_delta/v_len0)*0.0001
variable d3 equal -(v_pzz1-${pzz0})/(v_delta/v_len0)*${cfac}
variable d3 equal -(v_pzz1-0.000338668551224838)/(v_delta/v_len0)*${cfac}
variable d3 equal -(v_pzz1-0.000338668551224838)/(v_delta/v_len0)*0.0001
variable d4 equal -(v_pyz1-${pyz0})/(v_delta/v_len0)*${cfac}
variable d4 equal -(v_pyz1-1.80391108295274e-11)/(v_delta/v_len0)*${cfac}
variable d4 equal -(v_pyz1-1.80391108295274e-11)/(v_delta/v_len0)*0.0001
variable d5 equal -(v_pxz1-${pxz0})/(v_delta/v_len0)*${cfac}
variable d5 equal -(v_pxz1--2.72724715226356e-11)/(v_delta/v_len0)*${cfac}
variable d5 equal -(v_pxz1--2.72724715226356e-11)/(v_delta/v_len0)*0.0001
variable d6 equal -(v_pxy1-${pxy0})/(v_delta/v_len0)*${cfac}
variable d6 equal -(v_pxy1-1.12768093710912e-11)/(v_delta/v_len0)*${cfac}
variable d6 equal -(v_pxy1-1.12768093710912e-11)/(v_delta/v_len0)*0.0001

displace_atoms all random ${atomjiggle} ${atomjiggle} ${atomjiggle} 87287 units box
displace_atoms all random 1e-05 ${atomjiggle} ${atomjiggle} 87287 units box
displace_atoms all random 1e-05 1e-05 ${atomjiggle} 87287 units box
displace_atoms all random 1e-05 1e-05 1e-05 87287 units box
Displacing atoms ...

# Write restart
unfix 3
write_restart restart.equil
System init for write_restart ...

# uxx Perturbation

variable dir equal 1
include displace.mod
# NOTE: This script should not need to be
# modified. See in.elastic for more info.
#
# Find which reference length to use

if "${dir} == 1" then    "variable len0 equal ${lx0}"
variable len0 equal ${lx0}
variable len0 equal 22.7351002585428
if "${dir} == 2" then    "variable len0 equal ${ly0}"
if "${dir} == 3" then    "variable len0 equal ${lz0}"
if "${dir} == 4" then    "variable len0 equal ${lz0}"
if "${dir} == 5" then    "variable len0 equal ${lz0}"
if "${dir} == 6" then    "variable len0 equal ${ly0}"

# Reset box and simulation parameters
clear
box tilt large
read_restart restart.equil
Reading restart file ...
  restart file = 3 Aug 2022, LAMMPS = 3 Aug 2022
  restoring atom style atomic from restart
  triclinic box = (-11.36805 -11.36805 -11.36805) to (11.36705 11.36705 11.36705) with tilt (0 0 0)
  4 by 4 by 2 MPI processor grid
  pair style pace stores no restart info
  1024 atoms
  read_restart CPU = 0.001 seconds
include ../potential.in
#pair_style      aenet
#pair_coeff      * * v-1 Fe 15tw-15tw.nn Fe
#----------------------NEUip
pair_style  pace
ACE version: 2021.10.25
Recursive evaluator is used
pair_coeff * * /scratch-shared/zhanglei1/ace_julia_training_slovers/N4.D14_rrqr/Fe_ace_N4_D14_R5.yace Fe
Loading /scratch-shared/zhanglei1/ace_julia_training_slovers/N4.D14_rrqr/Fe_ace_N4_D14_R5.yace
Total number of basis functions
	Fe: 14 (r=1) 2411 (r>1)
Mapping LAMMPS atom type #1(Fe) -> ACE species type #0
#pair_coeff  * * /data/lei/train_ace_2021_12_08/training_ace_iron_2022_08_12_v2/interim_potential_0.yace Fe
#pair_coeff  * * /data/lei/train_ace_2021_12_08/training_ace_iron_2022_08_12_v3_iter2000/interim_potential_0.yace Fe
#pair_coeff  * * /data/lei/train_ace_2021_12_08/training_ace_iron_2022_08_16/interim_potential_0.yace Fe
#pair_coeff  * * /data/lei/ace_iron/ace_Cas_suggested/Fe_ace_N3_D10_R5.yace Fe
#pair_coeff  * * /data/lei/ace_iron/ace_Cas_suggested_updated_1/Fe_ace_N3_D10_R5.yace Fe
#pair_coeff  * * /data/lei/ace_iron/ace_tuning_weights/Fe_ace_N3_D10_R5.yace Fe
#pair_coeff  * * /data/lei/ace_iron/ace_tuning_weights/Fe_ace_N3_D16_R5.yace Fe
#pair_coeff  * * /data/lei/ace_iron/ace_tuning_weights/Fe_ace_N4_D12_R5.yace Fe
#pair_coeff  * * /home/lei/ACEproject/ace_models/Fe_ace_N4_D18_R5.yace Fe
#pair_coeff  * * /home/lei/ACEproject/ace_models/Fe_ace_N3_D18_R5.yace Fe
#pair_coeff  * * /data/lei/train_ace_2021_12_08/training_ace_iron_2022_08_12_v3_iter2000/output_potential.yace Fe
# Addition
#newton  off

#pair_style	allegro
#pair_coeff	* * /home/zhanglei1/automatic_workflow_IAP_v1_2021_12_01/allegro-single-deployed_2022_09_22/allegro-single-deployed.pth Fe

# ---------------------GAP--------------------
#pair_style      quip
#pair_coeff      * * /scratch-shared/zhanglei1/GAP_training_OgataDBs/M4700_l8n8_R6.5/gap_Fe_test.xml "Potential xml_label=GAP_2022_10_10_120_21_47_54_69" 26

#pair_coeff      * * /scratch-shared/zhanglei1/GAP_training/M3000_l6n6/gap_Fe_test.xml "Potential xml_label=GAP_2022_10_3_120_16_55_34_368" 26
#pair_coeff      * * /home/lei/gap_training/l_6_n_12_allNewData/gap_Fe_test.xml "Potential xml_label=GAP_2021_12_1_60_0_17_25_709" 26
#pair_coeff      * * /home/lei/gap_training_2021_12_13/l_6_n_12_allNewData_turboSOAP/gap_Fe_test.xml "Potential xml_label=GAP_2021_12_12_60_17_6_15_829" 26 # TurboSOAP descriptor
#pair_coeff      * * /home/lei/gap_training_2021_12_13/l_6_n_12_allNewData_doubleSOAP/gap_Fe_test.xml "Potential xml_label=GAP_2021_12_14_60_8_16_28_553" 26
#pair_coeff      * * /home/lei/gap_training_2021_12_13/l_6_n_12_newdata_2021_12_16/gap_Fe_test.xml "Potential xml_label=GAP_2021_12_17_60_2_59_46_132" 26
#pair_coeff      * * /home/lei/gap_training_2021_12_13/l_6_n_12_newdata_doubleSOAP_2021_12_17/gap_Fe_test.xml   "Potential xml_label=GAP_2021_12_17_60_21_56_31_840" 26
#pair_coeff      * * /data/lei/gap_training_2021_12_13/l_6_n_12_newdata_doubleSOAP_2021_12_21/gap_Fe_test.xml   "Potential xml_label=GAP_2021_12_21_60_14_55_52_923" 26
#pair_coeff      * * /home/lei/gap_training_2021_12_13/l_6_n_12_newdata_doubleSOAP_Rcut6_2021_12_21/gap_Fe_test.xml   "Potential xml_label=GAP_2021_12_21_60_22_39_47_189" 26
#pair_coeff      * * /data/lei/gap_training_addCracks_2022_01_25/doubSOAP_R5_2022_01_25/gap_Fe_test.xml   "Potential xml_label=GAP_2022_1_26_60_7_10_9_751" 26

#pair_coeff      * * /home/p301616/gap_trainedOn_nieuwpoort/doubSOAP_R5_2022_01_28/gap_Fe_test.xml   "Potential xml_label=GAP_2022_1_29_60_3_44_50_986" 26

#pair_coeff      * * /home/lei/gap_training_addCracks_2022_01_25/doubSOAP_R5_2022_02_10_iter3/gap_Fe_test.xml   "Potential xml_label=GAP_2022_2_11_60_3_6_24_998" 26
#pair_coeff      * * /home/lei/gap_training_addCracks/doubSOAP_R5_2022_02_23_iter8/gap_Fe_test.xml   "Potential xml_label=GAP_2022_2_23_60_14_2_51_919" 26
#pair_coeff      * * /home/lei/gap_training_addCracks/turboSOAP_iter10/gap_Fe_test.xml   "Potential xml_label=GAP_2022_3_8_60_9_8_45_147" 26
#pair_coeff      * * /home/lei/gap_training_addCracks/turboSOAP_iter11/gap_Fe_test.xml   "Potential xml_label=GAP_2022_3_8_60_14_22_10_147" 26
#pair_coeff      * * /home/lei/gap_training_addCracks/doubSOAP_R5_2022_03_08_iter11/gap_Fe_test.xml   "Potential xml_label=GAP_2022_3_8_60_13_19_13_884" 26
#pair_coeff      * * /home/lei/gap_training_addCracks/turboSOAP_iter11_2/gap_Fe_test.xml   "Potential xml_label=GAP_2022_3_9_60_20_54_41_133" 26
#pair_coeff      * * /home/lei/gap_training_addCracks/turboSOAP_iter11/gap_Fe_test.xml   "Potential xml_label=GAP_2022_3_10_60_5_9_4_798" 26
#pair_coeff      * * /home/lei/gap_training_addCracks/turboSOAP_iter11_basis10/gap_Fe_test.xml   "Potential xml_label=GAP_2022_3_10_60_10_51_48_731" 26
#pair_coeff      * * /home/lei/gap_training_addCracks/doubleturboSOAP_iter11/gap_Fe_test.xml   "Potential xml_label=GAP_2022_3_9_60_23_12_29_37" 26
#pair_coeff      * * /home/lei/gap_training_addCracks/turboSOAP_iter11_compressfile/gap_Fe_test.xml   "Potential xml_label=GAP_2022_3_10_60_11_56_19_400" 26
#pair_coeff      * * /home/lei/gap_snellius/doubleturboSOAP_iter11_basis8/gap_Fe_test.xml   "Potential xml_label=GAP_2022_3_10_60_18_34_37_91" 26
#pair_coeff      * * /home/lei/gap_snellius/doubleturboSOAP_iter0_basis8/gap_Fe_test.xml "Potential xml_label=GAP_2022_3_11_60_22_7_9_623" 26
#pair_coeff      * * /home/lei/gap_snellius/doubleturboSOAP_iter0_hcp_basis8/gap_Fe_test.xml "Potential xml_label=GAP_2022_3_28_120_15_22_12_14" 26
#pair_coeff      * * /home/lei/gap_snellius/final/gap_Fe_test.xml "Potential xml_label=GAP_2022_5_28_120_3_13_35_983" 26
#---------------------------------------------

#---------------------ADP---------------------
# pair_style adp
# pair_coeff * * /home/lei/crackTip_ADP/Fe_nmFe.2021.adp.alloy Fe
#---------------------------------------------
include neigh.mod
# Setup neighbor style
neighbor 1.0 nsq
neigh_modify once no every 1 delay 0 check yes

# Setup minimization style
min_style            cg
min_modify           dmax ${dmax} line quadratic
min_modify           dmax 0.01 line quadratic

# Setup output
thermo          1
thermo_style custom step temp pe press pxx pyy pzz pxy pxz pyz lx ly lz vol
thermo_modify norm no

# Negative deformation

variable delta equal -${up}*${len0}
variable delta equal -1e-05*${len0}
variable delta equal -1e-05*22.7351002585428
variable deltaxy equal -${up}*xy
variable deltaxy equal -1e-05*xy
variable deltaxz equal -${up}*xz
variable deltaxz equal -1e-05*xz
variable deltayz equal -${up}*yz
variable deltayz equal -1e-05*yz
if "${dir} == 1" then    "change_box all x delta 0 ${delta} xy delta ${deltaxy} xz delta ${deltaxz} remap units box"
change_box all x delta 0 ${delta} xy delta ${deltaxy} xz delta ${deltaxz} remap units box
change_box all x delta 0 -0.000227351002585428 xy delta ${deltaxy} xz delta ${deltaxz} remap units box
change_box all x delta 0 -0.000227351002585428 xy delta -0 xz delta ${deltaxz} remap units box
change_box all x delta 0 -0.000227351002585428 xy delta -0 xz delta -0 remap units box
Changing box ...
  triclinic box = (-11.36805 -11.36805 -11.36805) to (11.366823 11.36705 11.36705) with tilt (0 0 0)
  triclinic box = (-11.36805 -11.36805 -11.36805) to (11.366823 11.36705 11.36705) with tilt (0 0 0)
  triclinic box = (-11.36805 -11.36805 -11.36805) to (11.366823 11.36705 11.36705) with tilt (0 0 0)
if "${dir} == 2" then    "change_box all y delta 0 ${delta} yz delta ${deltayz} remap units box"
if "${dir} == 3" then    "change_box all z delta 0 ${delta} remap units box"
if "${dir} == 4" then    "change_box all yz delta ${delta} remap units box"
if "${dir} == 5" then    "change_box all xz delta ${delta} remap units box"
if "${dir} == 6" then    "change_box all xy delta ${delta} remap units box"

# Relax atoms positions

minimize ${etol} ${ftol} ${maxiter} ${maxeval}
minimize 0 ${ftol} ${maxiter} ${maxeval}
minimize 0 1e-10 ${maxiter} ${maxeval}
minimize 0 1e-10 100 ${maxeval}
minimize 0 1e-10 100 1000
Neighbor list info ...
  update every 1 steps, delay 0 steps, check yes
  max neighbors/atom: 2000, page size: 100000
  master list distance cutoff = 6
  ghost atom cutoff = 6
  1 neighbor lists, perpetual/occasional/extra = 1 0 0
  (1) pair pace, perpetual
      attributes: full, newton on
      pair build: full/nsq
      stencil: none
      bin: none
Per MPI rank memory allocation (min/avg/max) = 4.209 | 4.209 | 4.209 Mbytes
   Step          Temp          PotEng         Press           Pxx            Pyy            Pzz            Pxy            Pxz            Pyz             Lx             Ly             Lz           Volume    
       100   0             -3543999.6      15.902735      27.496512      10.105526      10.106167     -1.4640152e-06  2.1727172e-06 -3.6436908e-07  22.734873      22.7351        22.7351        11751.31     
       101   0             -3543999.6      15.902528      27.496307      10.105323      10.105954      4.859219e-07   1.8419691e-08 -5.1986865e-08  22.734873      22.7351        22.7351        11751.31     
       102   0             -3543999.6      15.902511      27.496289      10.105306      10.105937     -6.7377831e-09  1.6619336e-07 -2.6392895e-08  22.734873      22.7351        22.7351        11751.31     
       103   0             -3543999.6      15.902508      27.496287      10.105303      10.105935      1.2724444e-08  6.8854204e-08 -1.9334574e-08  22.734873      22.7351        22.7351        11751.31     
       104   0             -3543999.6      15.902508      27.496286      10.105303      10.105934      2.2997334e-08  3.4327731e-08 -7.1103e-09     22.734873      22.7351        22.7351        11751.31     
       105   0             -3543999.6      15.902507      27.496286      10.105303      10.105934      1.942412e-08   2.1800395e-08  2.7604619e-10  22.734873      22.7351        22.7351        11751.31     
       106   0             -3543999.6      15.902507      27.496286      10.105302      10.105934      1.5715148e-08  1.467744e-08   5.0885408e-10  22.734873      22.7351        22.7351        11751.31     
       107   0             -3543999.6      15.902507      27.496286      10.105302      10.105934      9.0147299e-09  6.5762734e-09 -6.062216e-10   22.734873      22.7351        22.7351        11751.31     
       108   0             -3543999.6      15.902507      27.496286      10.105302      10.105933      4.1079935e-09  1.6681747e-09 -7.2624135e-10  22.734873      22.7351        22.7351        11751.31     
       109   0             -3543999.6      15.902507      27.496286      10.105302      10.105933      1.7048966e-09 -2.0582653e-10 -3.7516579e-10  22.734873      22.7351        22.7351        11751.31     
       110   0             -3543999.6      15.902507      27.496286      10.105302      10.105933      9.0611961e-10 -7.2254419e-10 -1.0909476e-10  22.734873      22.7351        22.7351        11751.31     
       111   0             -3543999.6      15.902507      27.496286      10.105302      10.105933      5.5572521e-10 -5.6051223e-10  6.5133686e-11  22.734873      22.7351        22.7351        11751.31     
       112   0             -3543999.6      15.902507      27.496286      10.105302      10.105933      3.7283094e-10 -3.4846825e-10  5.9828235e-11  22.734873      22.7351        22.7351        11751.31     
       113   0             -3543999.6      15.902507      27.496286      10.105302      10.105933      1.9057998e-10 -1.1825253e-10 -1.0330872e-12  22.734873      22.7351        22.7351        11751.31     
       114   0             -3543999.6      15.902507      27.496286      10.105302      10.105933      1.0272595e-10 -3.1734318e-11  1.7150004e-11  22.734873      22.7351        22.7351        11751.31     
       115   0             -3543999.6      15.902507      27.496286      10.105302      10.105933      6.8592447e-11 -9.7329677e-12 -2.3825336e-11  22.734873      22.7351        22.7351        11751.31     
       116   0             -3543999.6      15.902507      27.496286      10.105302      10.105933      2.9062672e-11  4.2912851e-12 -1.4996793e-11  22.734873      22.7351        22.7351        11751.31     
       117   0             -3543999.6      15.902507      27.496286      10.105302      10.105933      4.6507843e-12  8.9609905e-12 -2.1002321e-12  22.734873      22.7351        22.7351        11751.31     
       118   0             -3543999.6      15.902507      27.496286      10.105302      10.105933      1.16175e-11    1.9246452e-11  7.7197722e-12  22.734873      22.7351        22.7351        11751.31     
       119   0             -3543999.6      15.902507      27.496286      10.105302      10.105933     -4.3896744e-12  7.5986777e-12  1.1091496e-11  22.734873      22.7351        22.7351        11751.31     
       120   0             -3543999.6      15.902507      27.496286      10.105302      10.105933     -4.0869382e-13  2.648563e-11   3.0879089e-12  22.734873      22.7351        22.7351        11751.31     
       121   0             -3543999.6      15.902507      27.496286      10.105302      10.105933     -4.1588381e-12  3.988549e-12   3.0576353e-12  22.734873      22.7351        22.7351        11751.31     
       122   0             -3543999.6      15.902507      27.496286      10.105302      10.105933     -2.0623901e-12 -1.3358233e-11 -7.7122038e-12  22.734873      22.7351        22.7351        11751.31     
       123   0             -3543999.6      15.902507      27.496286      10.105302      10.105933      1.4569178e-12 -1.7411114e-11  5.43033e-12    22.734873      22.7351        22.7351        11751.31     
       124   0             -3543999.6      15.902507      27.496286      10.105302      10.105933      8.1398186e-12  5.1011044e-12  1.2048899e-11  22.734873      22.7351        22.7351        11751.31     
       125   0             -3543999.6      15.902507      27.496286      10.105302      10.105933     -1.17613e-11    8.0981924e-12  1.4909756e-12  22.734873      22.7351        22.7351        11751.31     
       126   0             -3543999.6      15.902507      27.496286      10.105302      10.105933      8.7339384e-12  1.8466906e-12 -2.4241598e-11  22.734873      22.7351        22.7351        11751.31     
       127   0             -3543999.6      15.902507      27.496286      10.105302      10.105933      8.3555181e-12 -3.0538511e-12  1.1231512e-11  22.734873      22.7351        22.7351        11751.31     
       128   0             -3543999.6      15.902507      27.496286      10.105302      10.105933     -1.557956e-11  -4.5296899e-12  6.2855596e-12  22.734873      22.7351        22.7351        11751.31     
       129   0             -3543999.6      15.902507      27.496286      10.105302      10.105933     -1.4962735e-11  2.0094113e-12  8.1398186e-12  22.734873      22.7351        22.7351        11751.31     
       130   0             -3543999.6      15.902507      27.496286      10.105302      10.105933      1.4966519e-11 -5.8201028e-12 -2.6792151e-12  22.734873      22.7351        22.7351        11751.31     
       131   0             -3543999.6      15.902507      27.496286      10.105302      10.105933     -2.5342801e-11 -6.0130971e-12 -9.1426322e-12  22.734873      22.7351        22.7351        11751.31     
       132   0             -3543999.6      15.902507      27.496286      10.105302      10.105933     -1.6071506e-11 -1.6404516e-11  5.6914399e-12  22.734873      22.7351        22.7351        11751.31     
       133   0             -3543999.6      15.902507      27.496286      10.105302      10.105933     -7.1142999e-13  7.6705776e-12  8.6014913e-12  22.734873      22.7351        22.7351        11751.31     
       134   0             -3543999.6      15.902507      27.496286      10.105302      10.105933      2.1040163e-12  1.2707351e-11  7.1218683e-12  22.734873      22.7351        22.7351        11751.31     
       135   0             -3543999.6      15.902507      27.496286      10.105302      10.105933      1.0909855e-11  2.053308e-11  -2.5883942e-12  22.734873      22.7351        22.7351        11751.31     
       136   0             -3543999.6      15.902507      27.496286      10.105302      10.105933      8.5712177e-12  1.7558698e-12  2.8074995e-11  22.734873      22.7351        22.7351        11751.31     
       137   0             -3543999.6      15.902507      27.496286      10.105302      10.105933     -6.8039953e-12  1.7653303e-11 -4.7037632e-12  22.734873      22.7351        22.7351        11751.31     
       138   0             -3543999.6      15.902507      27.496286      10.105302      10.105933      1.5238982e-11 -7.8711403e-13 -8.4993178e-12  22.734873      22.7351        22.7351        11751.31     
Loop time of 0.386115 on 32 procs for 38 steps with 1024 atoms

99.4% CPU use with 32 MPI tasks x no OpenMP threads

Minimization stats:
  Stopping criterion = force tolerance
  Energy initial, next-to-last, final = 
      -3543999.5953593  -3543999.59535987  -3543999.59535987
  Force two-norm initial, final = 0.0039387448 9.0959803e-11
  Force max component initial, final = 0.00019534231 5.87847e-12
  Final line search alpha, max atom move = 1 5.87847e-12
  Iterations, force evaluations = 38 76

MPI task timing breakdown:
Section |  min time  |  avg time  |  max time  |%varavg| %total
---------------------------------------------------------------
Pair    | 0.37308    | 0.37575    | 0.37865    |   0.2 | 97.31
Neigh   | 0          | 0          | 0          |   0.0 |  0.00
Comm    | 0.0051282  | 0.0079944  | 0.01065    |   1.2 |  2.07
Output  | 0.00095348 | 0.00096896 | 0.0011456  |   0.0 |  0.25
Modify  | 0          | 0          | 0          |   0.0 |  0.00
Other   |            | 0.001405   |            |       |  0.36

Nlocal:             32 ave          32 max          32 min
Histogram: 32 0 0 0 0 0 0 0 0 0
Nghost:            697 ave         697 max         697 min
Histogram: 32 0 0 0 0 0 0 0 0 0
Neighs:              0 ave           0 max           0 min
Histogram: 32 0 0 0 0 0 0 0 0 0
FullNghs:         2048 ave        2048 max        2048 min
Histogram: 32 0 0 0 0 0 0 0 0 0

Total # of neighbors = 65536
Ave neighs/atom = 64
Neighbor list builds = 0
Dangerous builds = 0

# Obtain new stress tensor

variable tmp equal pxx
variable pxx1 equal ${tmp}
variable pxx1 equal 27.4962859001485
variable tmp equal pyy
variable pyy1 equal ${tmp}
variable pyy1 equal 10.1053022901303
variable tmp equal pzz
variable pzz1 equal ${tmp}
variable pzz1 equal 10.1059334736637
variable tmp equal pxy
variable pxy1 equal ${tmp}
variable pxy1 equal 1.5238981697664e-11
variable tmp equal pxz
variable pxz1 equal ${tmp}
variable pxz1 equal -7.87114028585575e-13
variable tmp equal pyz
variable pyz1 equal ${tmp}
variable pyz1 equal -8.4993178279e-12

# Compute elastic constant from pressure tensor

variable C1neg equal ${d1}
variable C1neg equal 274.965781393382
variable C2neg equal ${d2}
variable C2neg equal 101.055947842181
variable C3neg equal ${d3}
variable C3neg equal 101.055948051125
variable C4neg equal ${d4}
variable C4neg equal -2.65384286574274e-10
variable C5neg equal ${d5}
variable C5neg equal 2.648535749405e-10
variable C6neg equal ${d6}
variable C6neg equal 3.9621723265728e-11

# Reset box and simulation parameters

clear
box tilt large
read_restart restart.equil
Reading restart file ...
  restart file = 3 Aug 2022, LAMMPS = 3 Aug 2022
  restoring atom style atomic from restart
  triclinic box = (-11.36805 -11.36805 -11.36805) to (11.36705 11.36705 11.36705) with tilt (0 0 0)
  4 by 4 by 2 MPI processor grid
  pair style pace stores no restart info
  1024 atoms
  read_restart CPU = 0.001 seconds
include ../potential.in
#pair_style      aenet
#pair_coeff      * * v-1 Fe 15tw-15tw.nn Fe
#----------------------NEUip
pair_style  pace
ACE version: 2021.10.25
Recursive evaluator is used
pair_coeff * * /scratch-shared/zhanglei1/ace_julia_training_slovers/N4.D14_rrqr/Fe_ace_N4_D14_R5.yace Fe
Loading /scratch-shared/zhanglei1/ace_julia_training_slovers/N4.D14_rrqr/Fe_ace_N4_D14_R5.yace
Total number of basis functions
	Fe: 14 (r=1) 2411 (r>1)
Mapping LAMMPS atom type #1(Fe) -> ACE species type #0
#pair_coeff  * * /data/lei/train_ace_2021_12_08/training_ace_iron_2022_08_12_v2/interim_potential_0.yace Fe
#pair_coeff  * * /data/lei/train_ace_2021_12_08/training_ace_iron_2022_08_12_v3_iter2000/interim_potential_0.yace Fe
#pair_coeff  * * /data/lei/train_ace_2021_12_08/training_ace_iron_2022_08_16/interim_potential_0.yace Fe
#pair_coeff  * * /data/lei/ace_iron/ace_Cas_suggested/Fe_ace_N3_D10_R5.yace Fe
#pair_coeff  * * /data/lei/ace_iron/ace_Cas_suggested_updated_1/Fe_ace_N3_D10_R5.yace Fe
#pair_coeff  * * /data/lei/ace_iron/ace_tuning_weights/Fe_ace_N3_D10_R5.yace Fe
#pair_coeff  * * /data/lei/ace_iron/ace_tuning_weights/Fe_ace_N3_D16_R5.yace Fe
#pair_coeff  * * /data/lei/ace_iron/ace_tuning_weights/Fe_ace_N4_D12_R5.yace Fe
#pair_coeff  * * /home/lei/ACEproject/ace_models/Fe_ace_N4_D18_R5.yace Fe
#pair_coeff  * * /home/lei/ACEproject/ace_models/Fe_ace_N3_D18_R5.yace Fe
#pair_coeff  * * /data/lei/train_ace_2021_12_08/training_ace_iron_2022_08_12_v3_iter2000/output_potential.yace Fe
# Addition
#newton  off

#pair_style	allegro
#pair_coeff	* * /home/zhanglei1/automatic_workflow_IAP_v1_2021_12_01/allegro-single-deployed_2022_09_22/allegro-single-deployed.pth Fe

# ---------------------GAP--------------------
#pair_style      quip
#pair_coeff      * * /scratch-shared/zhanglei1/GAP_training_OgataDBs/M4700_l8n8_R6.5/gap_Fe_test.xml "Potential xml_label=GAP_2022_10_10_120_21_47_54_69" 26

#pair_coeff      * * /scratch-shared/zhanglei1/GAP_training/M3000_l6n6/gap_Fe_test.xml "Potential xml_label=GAP_2022_10_3_120_16_55_34_368" 26
#pair_coeff      * * /home/lei/gap_training/l_6_n_12_allNewData/gap_Fe_test.xml "Potential xml_label=GAP_2021_12_1_60_0_17_25_709" 26
#pair_coeff      * * /home/lei/gap_training_2021_12_13/l_6_n_12_allNewData_turboSOAP/gap_Fe_test.xml "Potential xml_label=GAP_2021_12_12_60_17_6_15_829" 26 # TurboSOAP descriptor
#pair_coeff      * * /home/lei/gap_training_2021_12_13/l_6_n_12_allNewData_doubleSOAP/gap_Fe_test.xml "Potential xml_label=GAP_2021_12_14_60_8_16_28_553" 26
#pair_coeff      * * /home/lei/gap_training_2021_12_13/l_6_n_12_newdata_2021_12_16/gap_Fe_test.xml "Potential xml_label=GAP_2021_12_17_60_2_59_46_132" 26
#pair_coeff      * * /home/lei/gap_training_2021_12_13/l_6_n_12_newdata_doubleSOAP_2021_12_17/gap_Fe_test.xml   "Potential xml_label=GAP_2021_12_17_60_21_56_31_840" 26
#pair_coeff      * * /data/lei/gap_training_2021_12_13/l_6_n_12_newdata_doubleSOAP_2021_12_21/gap_Fe_test.xml   "Potential xml_label=GAP_2021_12_21_60_14_55_52_923" 26
#pair_coeff      * * /home/lei/gap_training_2021_12_13/l_6_n_12_newdata_doubleSOAP_Rcut6_2021_12_21/gap_Fe_test.xml   "Potential xml_label=GAP_2021_12_21_60_22_39_47_189" 26
#pair_coeff      * * /data/lei/gap_training_addCracks_2022_01_25/doubSOAP_R5_2022_01_25/gap_Fe_test.xml   "Potential xml_label=GAP_2022_1_26_60_7_10_9_751" 26

#pair_coeff      * * /home/p301616/gap_trainedOn_nieuwpoort/doubSOAP_R5_2022_01_28/gap_Fe_test.xml   "Potential xml_label=GAP_2022_1_29_60_3_44_50_986" 26

#pair_coeff      * * /home/lei/gap_training_addCracks_2022_01_25/doubSOAP_R5_2022_02_10_iter3/gap_Fe_test.xml   "Potential xml_label=GAP_2022_2_11_60_3_6_24_998" 26
#pair_coeff      * * /home/lei/gap_training_addCracks/doubSOAP_R5_2022_02_23_iter8/gap_Fe_test.xml   "Potential xml_label=GAP_2022_2_23_60_14_2_51_919" 26
#pair_coeff      * * /home/lei/gap_training_addCracks/turboSOAP_iter10/gap_Fe_test.xml   "Potential xml_label=GAP_2022_3_8_60_9_8_45_147" 26
#pair_coeff      * * /home/lei/gap_training_addCracks/turboSOAP_iter11/gap_Fe_test.xml   "Potential xml_label=GAP_2022_3_8_60_14_22_10_147" 26
#pair_coeff      * * /home/lei/gap_training_addCracks/doubSOAP_R5_2022_03_08_iter11/gap_Fe_test.xml   "Potential xml_label=GAP_2022_3_8_60_13_19_13_884" 26
#pair_coeff      * * /home/lei/gap_training_addCracks/turboSOAP_iter11_2/gap_Fe_test.xml   "Potential xml_label=GAP_2022_3_9_60_20_54_41_133" 26
#pair_coeff      * * /home/lei/gap_training_addCracks/turboSOAP_iter11/gap_Fe_test.xml   "Potential xml_label=GAP_2022_3_10_60_5_9_4_798" 26
#pair_coeff      * * /home/lei/gap_training_addCracks/turboSOAP_iter11_basis10/gap_Fe_test.xml   "Potential xml_label=GAP_2022_3_10_60_10_51_48_731" 26
#pair_coeff      * * /home/lei/gap_training_addCracks/doubleturboSOAP_iter11/gap_Fe_test.xml   "Potential xml_label=GAP_2022_3_9_60_23_12_29_37" 26
#pair_coeff      * * /home/lei/gap_training_addCracks/turboSOAP_iter11_compressfile/gap_Fe_test.xml   "Potential xml_label=GAP_2022_3_10_60_11_56_19_400" 26
#pair_coeff      * * /home/lei/gap_snellius/doubleturboSOAP_iter11_basis8/gap_Fe_test.xml   "Potential xml_label=GAP_2022_3_10_60_18_34_37_91" 26
#pair_coeff      * * /home/lei/gap_snellius/doubleturboSOAP_iter0_basis8/gap_Fe_test.xml "Potential xml_label=GAP_2022_3_11_60_22_7_9_623" 26
#pair_coeff      * * /home/lei/gap_snellius/doubleturboSOAP_iter0_hcp_basis8/gap_Fe_test.xml "Potential xml_label=GAP_2022_3_28_120_15_22_12_14" 26
#pair_coeff      * * /home/lei/gap_snellius/final/gap_Fe_test.xml "Potential xml_label=GAP_2022_5_28_120_3_13_35_983" 26
#---------------------------------------------

#---------------------ADP---------------------
# pair_style adp
# pair_coeff * * /home/lei/crackTip_ADP/Fe_nmFe.2021.adp.alloy Fe
#---------------------------------------------
include neigh.mod
# Setup neighbor style
neighbor 1.0 nsq
neigh_modify once no every 1 delay 0 check yes

# Setup minimization style
min_style            cg
min_modify           dmax ${dmax} line quadratic
min_modify           dmax 0.01 line quadratic

# Setup output
thermo          1
thermo_style custom step temp pe press pxx pyy pzz pxy pxz pyz lx ly lz vol
thermo_modify norm no

# Positive deformation

variable delta equal ${up}*${len0}
variable delta equal 1e-05*${len0}
variable delta equal 1e-05*22.7351002585428
variable deltaxy equal ${up}*xy
variable deltaxy equal 1e-05*xy
variable deltaxz equal ${up}*xz
variable deltaxz equal 1e-05*xz
variable deltayz equal ${up}*yz
variable deltayz equal 1e-05*yz
if "${dir} == 1" then    "change_box all x delta 0 ${delta} xy delta ${deltaxy} xz delta ${deltaxz} remap units box"
change_box all x delta 0 ${delta} xy delta ${deltaxy} xz delta ${deltaxz} remap units box
change_box all x delta 0 0.000227351002585428 xy delta ${deltaxy} xz delta ${deltaxz} remap units box
change_box all x delta 0 0.000227351002585428 xy delta 0 xz delta ${deltaxz} remap units box
change_box all x delta 0 0.000227351002585428 xy delta 0 xz delta 0 remap units box
Changing box ...
  triclinic box = (-11.36805 -11.36805 -11.36805) to (11.367277 11.36705 11.36705) with tilt (0 0 0)
  triclinic box = (-11.36805 -11.36805 -11.36805) to (11.367277 11.36705 11.36705) with tilt (0 0 0)
  triclinic box = (-11.36805 -11.36805 -11.36805) to (11.367277 11.36705 11.36705) with tilt (0 0 0)
if "${dir} == 2" then    "change_box all y delta 0 ${delta} yz delta ${deltayz} remap units box"
if "${dir} == 3" then    "change_box all z delta 0 ${delta} remap units box"
if "${dir} == 4" then    "change_box all yz delta ${delta} remap units box"
if "${dir} == 5" then    "change_box all xz delta ${delta} remap units box"
if "${dir} == 6" then    "change_box all xy delta ${delta} remap units box"

# Relax atoms positions

minimize ${etol} ${ftol} ${maxiter} ${maxeval}
minimize 0 ${ftol} ${maxiter} ${maxeval}
minimize 0 1e-10 ${maxiter} ${maxeval}
minimize 0 1e-10 100 ${maxeval}
minimize 0 1e-10 100 1000
Neighbor list info ...
  update every 1 steps, delay 0 steps, check yes
  max neighbors/atom: 2000, page size: 100000
  master list distance cutoff = 6
  ghost atom cutoff = 6
  1 neighbor lists, perpetual/occasional/extra = 1 0 0
  (1) pair pace, perpetual
      attributes: full, newton on
      pair build: full/nsq
      stencil: none
      bin: none
Per MPI rank memory allocation (min/avg/max) = 4.209 | 4.209 | 4.209 Mbytes
   Step          Temp          PotEng         Press           Pxx            Pyy            Pzz            Pxy            Pxz            Pyz             Lx             Ly             Lz           Volume    
       100   0             -3543999.6     -15.899562     -27.492402     -10.103463     -10.102822     -1.4638668e-06  2.173602e-06  -3.6477669e-07  22.735328      22.7351        22.7351        11751.545    
       101   0             -3543999.6     -15.899769     -27.492607     -10.103666     -10.103035      4.8583602e-07  1.8318994e-08 -5.2014842e-08  22.735328      22.7351        22.7351        11751.545    
       102   0             -3543999.6     -15.899787     -27.492625     -10.103683     -10.103052     -6.7372321e-09  1.6613555e-07 -2.6402784e-08  22.735328      22.7351        22.7351        11751.545    
       103   0             -3543999.6     -15.899789     -27.492627     -10.103685     -10.103054      1.2711777e-08  6.8869223e-08 -1.9336466e-08  22.735328      22.7351        22.7351        11751.545    
       104   0             -3543999.6     -15.89979      -27.492628     -10.103686     -10.103055      2.2971437e-08  3.4314288e-08 -7.1212831e-09  22.735328      22.7351        22.7351        11751.545    
       105   0             -3543999.6     -15.89979      -27.492628     -10.103686     -10.103055      1.9417257e-08  2.1800458e-08  2.9805671e-10  22.735328      22.7351        22.7351        11751.545    
       106   0             -3543999.6     -15.89979      -27.492628     -10.103686     -10.103055      1.5698448e-08  1.4645886e-08  5.1874696e-10  22.735328      22.7351        22.7351        11751.545    
       107   0             -3543999.6     -15.89979      -27.492628     -10.103686     -10.103055      9.011212e-09   6.562273e-09  -6.0784044e-10  22.735328      22.7351        22.7351        11751.545    
       108   0             -3543999.6     -15.89979      -27.492628     -10.103686     -10.103055      4.0739526e-09  1.6805835e-09 -7.4148443e-10  22.735328      22.7351        22.7351        11751.545    
       109   0             -3543999.6     -15.89979      -27.492628     -10.103686     -10.103055      1.7250659e-09 -2.4034879e-10 -3.6437731e-10  22.735328      22.7351        22.7351        11751.545    
       110   0             -3543999.6     -15.89979      -27.492628     -10.103687     -10.103055      9.1151658e-10 -7.1586589e-10 -1.0320448e-10  22.735328      22.7351        22.7351        11751.545    
       111   0             -3543999.6     -15.89979      -27.492628     -10.103687     -10.103055      5.1438387e-10 -5.8233164e-10  7.4910566e-11  22.735328      22.7351        22.7351        11751.545    
       112   0             -3543999.6     -15.89979      -27.492628     -10.103687     -10.103055      3.6084294e-10 -3.3475139e-10  4.9810456e-11  22.735328      22.7351        22.7351        11751.545    
       113   0             -3543999.6     -15.89979      -27.492628     -10.103687     -10.103055      2.1706506e-10 -1.3532414e-10 -1.1015592e-11  22.735328      22.7351        22.7351        11751.545    
       114   0             -3543999.6     -15.89979      -27.492628     -10.103687     -10.103055      1.4198421e-10 -4.067179e-11  -8.4310336e-12  22.735328      22.7351        22.7351        11751.545    
       115   0             -3543999.6     -15.89979      -27.492628     -10.103687     -10.103055      7.9088241e-11 -1.6230118e-11 -5.0253198e-12  22.735328      22.7351        22.7351        11751.545    
       116   0             -3543999.6     -15.89979      -27.492628     -10.103687     -10.103055      1.5200836e-11  2.1141914e-11  7.2390338e-12  22.735328      22.7351        22.7351        11751.545    
       117   0             -3543999.6     -15.89979      -27.492628     -10.103687     -10.103055      2.1047311e-11  3.9279232e-12 -1.5060823e-11  22.735328      22.7351        22.7351        11751.545    
       118   0             -3543999.6     -15.89979      -27.492628     -10.103687     -10.103055      1.5355985e-11 -1.8489241e-11 -8.0677574e-12  22.735328      22.7351        22.7351        11751.545    
       119   0             -3543999.6     -15.89979      -27.492628     -10.103687     -10.103055     -7.0990211e-12  4.9193643e-13  1.5026766e-11  22.735328      22.7351        22.7351        11751.545    
       120   0             -3543999.6     -15.89979      -27.492628     -10.103687     -10.103055     -5.600507e-13   8.4272494e-12 -1.2589788e-11  22.735328      22.7351        22.7351        11751.545    
       121   0             -3543999.6     -15.89979      -27.492628     -10.103687     -10.103055     -1.5552759e-12 -8.2266907e-12 -8.6959224e-12  22.735328      22.7351        22.7351        11751.545    
       122   0             -3543999.6     -15.89979      -27.492628     -10.103687     -10.103055     -1.98818e-11    7.6817765e-13 -2.6148313e-12  22.735328      22.7351        22.7351        11751.545    
       123   0             -3543999.6     -15.89979      -27.492628     -10.103687     -10.103055      7.7271861e-12 -1.4527261e-11  8.7261954e-12  22.735328      22.7351        22.7351        11751.545    
       124   0             -3543999.6     -15.89979      -27.492628     -10.103687     -10.103055     -2.5917482e-11  1.4689979e-11 -1.2449776e-12  22.735328      22.7351        22.7351        11751.545    
       125   0             -3543999.6     -15.89979      -27.492628     -10.103687     -10.103055     -4.5031104e-12 -1.7444823e-11  9.1878588e-12  22.735328      22.7351        22.7351        11751.545    
       126   0             -3543999.6     -15.89979      -27.492628     -10.103687     -10.103055     -1.0792328e-11 -6.168126e-12   1.581008e-11   22.735328      22.7351        22.7351        11751.545    
       127   0             -3543999.6     -15.89979      -27.492628     -10.103687     -10.103055     -2.4937393e-12  2.3983793e-11  9.7706143e-12  22.735328      22.7351        22.7351        11751.545    
       128   0             -3543999.6     -15.89979      -27.492628     -10.103687     -10.103055      6.0583863e-12 -6.0394657e-12 -1.0618259e-11  22.735328      22.7351        22.7351        11751.545    
       129   0             -3543999.6     -15.89979      -27.492628     -10.103687     -10.103055      7.9845067e-13  1.4133712e-11 -7.8520622e-12  22.735328      22.7351        22.7351        11751.545    
       130   0             -3543999.6     -15.89979      -27.492628     -10.103687     -10.103055      8.1055987e-12  1.0217141e-11  7.8936876e-12  22.735328      22.7351        22.7351        11751.545    
       131   0             -3543999.6     -15.89979      -27.492628     -10.103687     -10.103055     -6.2173196e-12  1.5068391e-11  1.474674e-11   22.735328      22.7351        22.7351        11751.545    
       132   0             -3543999.6     -15.89979      -27.492628     -10.103687     -10.103055     -1.4848912e-11 -7.2655226e-12 -2.3158853e-12  22.735328      22.7351        22.7351        11751.545    
       133   0             -3543999.6     -15.89979      -27.492628     -10.103687     -10.103055     -7.4774337e-12 -3.9657644e-12 -2.1524111e-11  22.735328      22.7351        22.7351        11751.545    
       134   0             -3543999.6     -15.89979      -27.492628     -10.103687     -10.103055     -1.3622855e-13  9.4868048e-12  3.1408249e-13  22.735328      22.7351        22.7351        11751.545    
       135   0             -3543999.6     -15.89979      -27.492628     -10.103687     -10.103055     -5.1880373e-12  1.9866663e-12  1.0447973e-11  22.735328      22.7351        22.7351        11751.545    
       136   0             -3543999.6     -15.89979      -27.492628     -10.103687     -10.103055      2.0309406e-11 -9.9144111e-12  3.0916313e-12  22.735328      22.7351        22.7351        11751.545    
       137   0             -3543999.6     -15.89979      -27.492628     -10.103687     -10.103055      4.461485e-12   4.2155168e-12 -8.2683161e-12  22.735328      22.7351        22.7351        11751.545    
       138   0             -3543999.6     -15.89979      -27.492628     -10.103687     -10.103055      2.5732059e-12  2.2591234e-12 -1.5238677e-11  22.735328      22.7351        22.7351        11751.545    
Loop time of 0.39146 on 32 procs for 38 steps with 1024 atoms

99.3% CPU use with 32 MPI tasks x no OpenMP threads

Minimization stats:
  Stopping criterion = force tolerance
  Energy initial, next-to-last, final = 
      -3543999.5953593  -3543999.59535987  -3543999.59535987
  Force two-norm initial, final = 0.0039384845 9.1051036e-11
  Force max component initial, final = 0.00019532955 6.9028208e-12
  Final line search alpha, max atom move = 1 6.9028208e-12
  Iterations, force evaluations = 38 76

MPI task timing breakdown:
Section |  min time  |  avg time  |  max time  |%varavg| %total
---------------------------------------------------------------
Pair    | 0.37353    | 0.37517    | 0.38294    |   0.3 | 95.84
Neigh   | 0          | 0          | 0          |   0.0 |  0.00
Comm    | 0.0061953  | 0.013938   | 0.015637   |   1.4 |  3.56
Output  | 0.00098992 | 0.0010049  | 0.0011658  |   0.1 |  0.26
Modify  | 0          | 0          | 0          |   0.0 |  0.00
Other   |            | 0.00135    |            |       |  0.34

Nlocal:             32 ave          32 max          32 min
Histogram: 32 0 0 0 0 0 0 0 0 0
Nghost:            697 ave         697 max         697 min
Histogram: 32 0 0 0 0 0 0 0 0 0
Neighs:              0 ave           0 max           0 min
Histogram: 32 0 0 0 0 0 0 0 0 0
FullNghs:         2048 ave        2048 max        2048 min
Histogram: 32 0 0 0 0 0 0 0 0 0

Total # of neighbors = 65536
Ave neighs/atom = 64
Neighbor list builds = 0
Dangerous builds = 0

# Obtain new stress tensor

variable tmp equal pe
variable e1 equal ${tmp}
variable e1 equal -3543999.59535987
variable tmp equal press
variable p1 equal ${tmp}
variable p1 equal -15.8997900478913
variable tmp equal pxx
variable pxx1 equal ${tmp}
variable pxx1 equal -27.4926282564732
variable tmp equal pyy
variable pyy1 equal ${tmp}
variable pyy1 equal -10.1036865144412
variable tmp equal pzz
variable pzz1 equal ${tmp}
variable pzz1 equal -10.1030553727594
variable tmp equal pxy
variable pxy1 equal ${tmp}
variable pxy1 equal 2.57320593651177e-12
variable tmp equal pxz
variable pxz1 equal ${tmp}
variable pxz1 equal 2.25912344720225e-12
variable tmp equal pyz
variable pyz1 equal ${tmp}
variable pyz1 equal -1.52386769210778e-11

# Compute elastic constant from pressure tensor

variable C1pos equal ${d1}
variable C1pos equal 274.923360172835
variable C2pos equal ${d2}
variable C2pos equal 101.033940203534
variable C3pos equal ${d3}
variable C3pos equal 101.033940413106
variable C4pos equal ${d4}
variable C4pos equal 3.32777877506052e-10
variable C5pos equal ${d5}
variable C5pos equal -2.95315949698379e-10
variable C6pos equal ${d6}
variable C6pos equal 8.70360343457943e-11

# Combine positive and negative

variable C1${dir} equal 0.5*(${C1neg}+${C1pos})
variable C11 equal 0.5*(${C1neg}+${C1pos})
variable C11 equal 0.5*(274.965781393382+${C1pos})
variable C11 equal 0.5*(274.965781393382+274.923360172835)
variable C2${dir} equal 0.5*(${C2neg}+${C2pos})
variable C21 equal 0.5*(${C2neg}+${C2pos})
variable C21 equal 0.5*(101.055947842181+${C2pos})
variable C21 equal 0.5*(101.055947842181+101.033940203534)
variable C3${dir} equal 0.5*(${C3neg}+${C3pos})
variable C31 equal 0.5*(${C3neg}+${C3pos})
variable C31 equal 0.5*(101.055948051125+${C3pos})
variable C31 equal 0.5*(101.055948051125+101.033940413106)
variable C4${dir} equal 0.5*(${C4neg}+${C4pos})
variable C41 equal 0.5*(${C4neg}+${C4pos})
variable C41 equal 0.5*(-2.65384286574274e-10+${C4pos})
variable C41 equal 0.5*(-2.65384286574274e-10+3.32777877506052e-10)
variable C5${dir} equal 0.5*(${C5neg}+${C5pos})
variable C51 equal 0.5*(${C5neg}+${C5pos})
variable C51 equal 0.5*(2.648535749405e-10+${C5pos})
variable C51 equal 0.5*(2.648535749405e-10+-2.95315949698379e-10)
variable C6${dir} equal 0.5*(${C6neg}+${C6pos})
variable C61 equal 0.5*(${C6neg}+${C6pos})
variable C61 equal 0.5*(3.9621723265728e-11+${C6pos})
variable C61 equal 0.5*(3.9621723265728e-11+8.70360343457943e-11)

# Delete dir to make sure it is not reused

variable dir delete

# uyy Perturbation

variable dir equal 2
include displace.mod
# NOTE: This script should not need to be
# modified. See in.elastic for more info.
#
# Find which reference length to use

if "${dir} == 1" then    "variable len0 equal ${lx0}"
if "${dir} == 2" then    "variable len0 equal ${ly0}"
variable len0 equal ${ly0}
variable len0 equal 22.7351002585461
if "${dir} == 3" then    "variable len0 equal ${lz0}"
if "${dir} == 4" then    "variable len0 equal ${lz0}"
if "${dir} == 5" then    "variable len0 equal ${lz0}"
if "${dir} == 6" then    "variable len0 equal ${ly0}"

# Reset box and simulation parameters
clear
box tilt large
read_restart restart.equil
Reading restart file ...
  restart file = 3 Aug 2022, LAMMPS = 3 Aug 2022
  restoring atom style atomic from restart
  triclinic box = (-11.36805 -11.36805 -11.36805) to (11.36705 11.36705 11.36705) with tilt (0 0 0)
  4 by 4 by 2 MPI processor grid
  pair style pace stores no restart info
  1024 atoms
  read_restart CPU = 0.001 seconds
include ../potential.in
#pair_style      aenet
#pair_coeff      * * v-1 Fe 15tw-15tw.nn Fe
#----------------------NEUip
[...]
       106   0             -3543999.6      2.5931435e-05 -0.0003206777  -0.0002138318   0.0006123038  -9.7020336      1.464176e-08   5.0208291e-10  22.7351        22.7351        22.7351        11751.427    
       107   0             -3543999.6      2.5876536e-05 -0.00032072881 -0.00021388449  0.00061224291 -9.7020336      6.5591524e-09 -6.0852388e-10  22.7351        22.7351        22.7351        11751.427    
       108   0             -3543999.6      2.5851678e-05 -0.00032075174 -0.00021390899  0.00061221577 -9.7020336      1.6615319e-09 -7.4234328e-10  22.7351        22.7351        22.7351        11751.427    
       109   0             -3543999.6      2.5840053e-05 -0.00032076243 -0.000213921    0.0006122036  -9.7020336     -2.585568e-10  -3.7700493e-10  22.7351        22.7351        22.7351        11751.427    
       110   0             -3543999.6      2.5834511e-05 -0.00032076701 -0.00021392746  0.000612198   -9.7020336     -7.4218434e-10 -1.000533e-10   22.7351        22.7351        22.7351        11751.427    
       111   0             -3543999.6      2.5831779e-05 -0.00032076894 -0.00021393089  0.00061219517 -9.7020336     -5.7163585e-10  5.3602686e-11  22.7351        22.7351        22.7351        11751.427    
       112   0             -3543999.6      2.5830141e-05 -0.00032077012 -0.00021393285  0.0006121934  -9.7020336     -3.1483111e-10  4.8925459e-11  22.7351        22.7351        22.7351        11751.427    
       113   0             -3543999.6      2.5828759e-05 -0.00032077113 -0.00021393445  0.00061219186 -9.7020336     -1.4768079e-10 -1.2370433e-11  22.7351        22.7351        22.7351        11751.427    
       114   0             -3543999.6      2.582819e-05  -0.00032077148 -0.00021393515  0.0006121912  -9.7020336     -4.0131062e-11  7.1520704e-12  22.7351        22.7351        22.7351        11751.427    
       115   0             -3543999.6      2.582807e-05  -0.0003207715  -0.00021393536  0.00061219106 -9.7020336      7.4169619e-13  3.2922229e-12  22.7351        22.7351        22.7351        11751.427    
       116   0             -3543999.6      2.5827926e-05 -0.00032077157 -0.00021393557  0.00061219092 -9.7020336     -5.4491965e-13  5.3053982e-12  22.7351        22.7351        22.7351        11751.427    
       117   0             -3543999.6      2.5827756e-05 -0.00032077175 -0.00021393575  0.00061219076 -9.7020336      1.3426215e-11  1.2260692e-11  22.7351        22.7351        22.7351        11751.427    
       118   0             -3543999.6      2.5828066e-05 -0.0003207714  -0.00021393544  0.00061219104 -9.7020336     -4.2117748e-12 -1.0444293e-12  22.7351        22.7351        22.7351        11751.427    
       119   0             -3543999.6      2.5828245e-05 -0.00032077122 -0.00021393526  0.00061219121 -9.7020336     -5.4870381e-13 -1.4924744e-11  22.7351        22.7351        22.7351        11751.427    
       120   0             -3543999.6      2.5828113e-05 -0.00032077134 -0.00021393542  0.0006121911  -9.7020336     -3.7084809e-12  2.1872469e-12  22.7351        22.7351        22.7351        11751.427    
       121   0             -3543999.6      2.5828202e-05 -0.00032077127 -0.00021393531  0.00061219118 -9.7020336      1.5749691e-11 -1.1466018e-12  22.7351        22.7351        22.7351        11751.427    
       122   0             -3543999.6      2.5828139e-05 -0.00032077134 -0.00021393537  0.00061219113 -9.7020336      5.2297149e-12  3.9355308e-13  22.7351        22.7351        22.7351        11751.427    
       123   0             -3543999.6      2.5828213e-05 -0.00032077125 -0.00021393528  0.00061219117 -9.7020336      9.725302e-12   2.4407859e-12  22.7351        22.7351        22.7351        11751.427    
       124   0             -3543999.6      2.5828294e-05 -0.00032077115 -0.00021393521  0.00061219125 -9.7020336     -1.4402529e-11  5.3508082e-12  22.7351        22.7351        22.7351        11751.427    
       125   0             -3543999.6      2.5828289e-05 -0.00032077119 -0.00021393522  0.00061219127 -9.7020336      1.7736378e-11  1.1515212e-11  22.7351        22.7351        22.7351        11751.427    
       126   0             -3543999.6      2.5828349e-05 -0.00032077112 -0.00021393516  0.00061219133 -9.7020336     -1.0103718e-12  6.6525607e-12  22.7351        22.7351        22.7351        11751.427    
       127   0             -3543999.6      2.5828152e-05 -0.0003207713  -0.00021393536  0.00061219112 -9.7020336      1.5681577e-11 -1.1466018e-12  22.7351        22.7351        22.7351        11751.427    
       128   0             -3543999.6      2.5828255e-05 -0.00032077121 -0.00021393525  0.00061219123 -9.7020336     -1.5647519e-11  1.3195381e-11  22.7351        22.7351        22.7351        11751.427    
       129   0             -3543999.6      2.5828166e-05 -0.00032077131 -0.00021393535  0.00061219115 -9.7020336     -2.0797767e-11 -6.5163308e-12  22.7351        22.7351        22.7351        11751.427    
       130   0             -3543999.6      2.5828326e-05 -0.00032077113 -0.00021393519  0.0006121913  -9.7020336      1.9829021e-12  8.3667871e-12  22.7351        22.7351        22.7351        11751.427    
       131   0             -3543999.6      2.5828207e-05 -0.00032077125 -0.00021393531  0.00061219118 -9.7020336     -3.5381935e-12 -2.5278217e-12  22.7351        22.7351        22.7351        11751.427    
       132   0             -3543999.6      2.5828285e-05 -0.00032077117 -0.00021393523  0.00061219125 -9.7020336      2.0116617e-11 -1.9942545e-12  22.7351        22.7351        22.7351        11751.427    
       133   0             -3543999.6      2.5828465e-05 -0.00032077101 -0.00021393502  0.00061219143 -9.7020336     -3.4042341e-11 -1.8251024e-11  22.7351        22.7351        22.7351        11751.427    
       134   0             -3543999.6      2.5828173e-05 -0.00032077129 -0.00021393535  0.00061219116 -9.7020336      2.879749e-12  -4.4123355e-12  22.7351        22.7351        22.7351        11751.427    
       135   0             -3543999.6      2.5828445e-05 -0.00032077101 -0.00021393506  0.0006121914  -9.7020336     -2.4037011e-11 -1.7134696e-11  22.7351        22.7351        22.7351        11751.427    
       136   0             -3543999.6      2.5828176e-05 -0.0003207713  -0.00021393533  0.00061219116 -9.7020336     -2.4824117e-12  1.0671343e-11  22.7351        22.7351        22.7351        11751.427    
       137   0             -3543999.6      2.5828048e-05 -0.00032077141 -0.00021393546  0.00061219101 -9.7020336      1.6396784e-11  2.6004777e-11  22.7351        22.7351        22.7351        11751.427    
       138   0             -3543999.6      2.5828273e-05 -0.00032077119 -0.00021393524  0.00061219125 -9.7020336      1.3229438e-11 -1.2699655e-11  22.7351        22.7351        22.7351        11751.427    
Loop time of 0.388635 on 32 procs for 38 steps with 1024 atoms

99.4% CPU use with 32 MPI tasks x no OpenMP threads

Minimization stats:
  Stopping criterion = force tolerance
  Energy initial, next-to-last, final = 
     -3543999.59535995  -3543999.59536052  -3543999.59536052
  Force two-norm initial, final = 0.0039386162 9.1879014e-11
  Force max component initial, final = 0.00019533626 6.3402803e-12
  Final line search alpha, max atom move = 1 6.3402803e-12
  Iterations, force evaluations = 38 76

MPI task timing breakdown:
Section |  min time  |  avg time  |  max time  |%varavg| %total
---------------------------------------------------------------
Pair    | 0.37532    | 0.37745    | 0.37907    |   0.2 | 97.12
Neigh   | 0          | 0          | 0          |   0.0 |  0.00
Comm    | 0.0072646  | 0.0088902  | 0.011011   |   1.1 |  2.29
Output  | 0.00092851 | 0.00094367 | 0.0011104  |   0.0 |  0.24
Modify  | 0          | 0          | 0          |   0.0 |  0.00
Other   |            | 0.001353   |            |       |  0.35

Nlocal:             32 ave          32 max          32 min
Histogram: 32 0 0 0 0 0 0 0 0 0
Nghost:            697 ave         697 max         697 min
Histogram: 32 0 0 0 0 0 0 0 0 0
Neighs:              0 ave           0 max           0 min
Histogram: 32 0 0 0 0 0 0 0 0 0
FullNghs:         2048 ave        2048 max        2048 min
Histogram: 32 0 0 0 0 0 0 0 0 0

Total # of neighbors = 65536
Ave neighs/atom = 64
Neighbor list builds = 0
Dangerous builds = 0

# Obtain new stress tensor

variable tmp equal pe
variable e1 equal ${tmp}
variable e1 equal -3543999.59536052
variable tmp equal press
variable p1 equal ${tmp}
variable p1 equal 2.58282728680032e-05
variable tmp equal pxx
variable pxx1 equal ${tmp}
variable pxx1 equal -0.000320771191221131
variable tmp equal pyy
variable pyy1 equal ${tmp}
variable pyy1 equal -0.000213935236605869
variable tmp equal pzz
variable pzz1 equal ${tmp}
variable pzz1 equal 0.00061219124643101
variable tmp equal pxy
variable pxy1 equal ${tmp}
variable pxy1 equal -9.7020336436218
variable tmp equal pxz
variable pxz1 equal ${tmp}
variable pxz1 equal 1.32294381078304e-11
variable tmp equal pyz
variable pyz1 equal ${tmp}
variable pyz1 equal -1.26996551172423e-11

# Compute elastic constant from pressure tensor

variable C1pos equal ${d1}
variable C1pos equal 0.0002853200153173
variable C2pos equal ${d2}
variable C2pos equal -0.00078558851161181
variable C3pos equal ${d3}
variable C3pos equal -0.00273522695206172
variable C4pos equal ${d4}
variable C4pos equal 3.07387659467697e-10
variable C5pos equal ${d5}
variable C5pos equal -4.0501909630466e-10
variable C6pos equal ${d6}
variable C6pos equal 97.0203364363308

# Combine positive and negative

variable C1${dir} equal 0.5*(${C1neg}+${C1pos})
variable C16 equal 0.5*(${C1neg}+${C1pos})
variable C16 equal 0.5*(-0.00028531991185825+${C1pos})
variable C16 equal 0.5*(-0.00028531991185825+0.0002853200153173)
variable C2${dir} equal 0.5*(${C2neg}+${C2pos})
variable C26 equal 0.5*(${C2neg}+${C2pos})
variable C26 equal 0.5*(0.00078558896529526+${C2pos})
variable C26 equal 0.5*(0.00078558896529526+-0.00078558851161181)
variable C3${dir} equal 0.5*(${C3neg}+${C3pos})
variable C36 equal 0.5*(${C3neg}+${C3pos})
variable C36 equal 0.5*(0.00273522707394965+${C3pos})
variable C36 equal 0.5*(0.00273522707394965+-0.00273522695206172)
variable C4${dir} equal 0.5*(${C4neg}+${C4pos})
variable C46 equal 0.5*(${C4neg}+${C4pos})
variable C46 equal 0.5*(-2.2792021087947e-10+${C4pos})
variable C46 equal 0.5*(-2.2792021087947e-10+3.07387659467697e-10)
variable C5${dir} equal 0.5*(${C5neg}+${C5pos})
variable C56 equal 0.5*(${C5neg}+${C5pos})
variable C56 equal 0.5*(2.59972081810055e-10+${C5pos})
variable C56 equal 0.5*(2.59972081810055e-10+-4.0501909630466e-10)
variable C6${dir} equal 0.5*(${C6neg}+${C6pos})
variable C66 equal 0.5*(${C6neg}+${C6pos})
variable C66 equal 0.5*(97.0203364361618+${C6pos})
variable C66 equal 0.5*(97.0203364361618+97.0203364363308)

# Delete dir to make sure it is not reused

variable dir delete

# Output final values

variable C11all equal ${C11}
variable C11all equal 274.944570783108
variable C22all equal ${C22}
variable C22all equal 274.944570784096
variable C33all equal ${C33}
variable C33all equal 274.944571393254

variable C12all equal 0.5*(${C12}+${C21})
variable C12all equal 0.5*(101.044944024273+${C21})
variable C12all equal 0.5*(101.044944024273+101.044944022857)
variable C13all equal 0.5*(${C13}+${C31})
variable C13all equal 0.5*(101.04494416543+${C31})
variable C13all equal 0.5*(101.04494416543+101.044944232115)
variable C23all equal 0.5*(${C23}+${C32})
variable C23all equal 0.5*(101.044944165242+${C32})
variable C23all equal 0.5*(101.044944165242+101.044944233254)

variable C44all equal ${C44}
variable C44all equal 97.0203362239757
variable C55all equal ${C55}
variable C55all equal 97.020336223976
variable C66all equal ${C66}
variable C66all equal 97.0203364362463

variable C14all equal 0.5*(${C14}+${C41})
variable C14all equal 0.5*(-6.92407445181814e-10+${C41})
variable C14all equal 0.5*(-6.92407445181814e-10+3.3696795465889e-11)
variable C15all equal 0.5*(${C15}+${C51})
variable C15all equal 0.5*(-4.59284015008089e-10+${C51})
variable C15all equal 0.5*(-4.59284015008089e-10+-1.52311873789395e-11)
variable C16all equal 0.5*(${C16}+${C61})
variable C16all equal 0.5*(5.17295249875555e-11+${C61})
variable C16all equal 0.5*(5.17295249875555e-11+6.33288788057611e-11)

variable C24all equal 0.5*(${C24}+${C42})
variable C24all equal 0.5*(-6.05996060000199e-10+${C42})
variable C24all equal 0.5*(-6.05996060000199e-10+1.01528895158141e-10)
variable C25all equal 0.5*(${C25}+${C52})
variable C25all equal 0.5*(-5.21911929906443e-10+${C52})
variable C25all equal 0.5*(-5.21911929906443e-10+1.1883182332984e-11)
variable C26all equal 0.5*(${C26}+${C62})
variable C26all equal 0.5*(2.26841724982989e-10+${C62})
variable C26all equal 0.5*(2.26841724982989e-10+-1.02546169320113e-11)

variable C34all equal 0.5*(${C34}+${C43})
variable C34all equal 0.5*(-5.04391250012552e-10+${C43})
variable C34all equal 0.5*(-5.04391250012552e-10+-7.25428946630975e-11)
variable C35all equal 0.5*(${C35}+${C53})
variable C35all equal 0.5*(-4.99225865019989e-10+${C53})
variable C35all equal 0.5*(-4.99225865019989e-10+-1.21244109575028e-10)
variable C36all equal 0.5*(${C36}+${C63})
variable C36all equal 0.5*(6.09439649353755e-11+${C63})
variable C36all equal 0.5*(6.09439649353755e-11+-3.72165048819847e-11)

variable C45all equal 0.5*(${C45}+${C54})
variable C45all equal 0.5*(1.50798944106705e-11+${C54})
variable C45all equal 0.5*(1.50798944106705e-11+-1.83948222660652e-10)
variable C46all equal 0.5*(${C46}+${C64})
variable C46all equal 0.5*(3.97337242941135e-11+${C64})
variable C46all equal 0.5*(3.97337242941135e-11+1.63589419165191e-10)
variable C56all equal 0.5*(${C56}+${C65})
variable C56all equal 0.5*(-7.25235072473025e-11+${C65})
variable C56all equal 0.5*(-7.25235072473025e-11+-2.52971378005853e-11)

# Average moduli for cubic crystals

variable C11cubic equal (${C11all}+${C22all}+${C33all})/3.0
variable C11cubic equal (274.944570783108+${C22all}+${C33all})/3.0
variable C11cubic equal (274.944570783108+274.944570784096+${C33all})/3.0
variable C11cubic equal (274.944570783108+274.944570784096+274.944571393254)/3.0
variable C12cubic equal (${C12all}+${C13all}+${C23all})/3.0
variable C12cubic equal (101.044944023565+${C13all}+${C23all})/3.0
variable C12cubic equal (101.044944023565+101.044944198772+${C23all})/3.0
variable C12cubic equal (101.044944023565+101.044944198772+101.044944199248)/3.0
variable C44cubic equal (${C44all}+${C55all}+${C66all})/3.0
variable C44cubic equal (97.0203362239757+${C55all}+${C66all})/3.0
variable C44cubic equal (97.0203362239757+97.020336223976+${C66all})/3.0
variable C44cubic equal (97.0203362239757+97.020336223976+97.0203364362463)/3.0

variable bulkmodulus equal (${C11cubic}+2*${C12cubic})/3.0
variable bulkmodulus equal (274.944570986819+2*${C12cubic})/3.0
variable bulkmodulus equal (274.944570986819+2*101.044944140528)/3.0
variable shearmodulus1 equal ${C44cubic}
variable shearmodulus1 equal 97.0203362947327
variable shearmodulus2 equal (${C11cubic}-${C12cubic})/2.0
variable shearmodulus2 equal (274.944570986819-${C12cubic})/2.0
variable shearmodulus2 equal (274.944570986819-101.044944140528)/2.0
variable poissonratio equal 1.0/(1.0+${C11cubic}/${C12cubic})
variable poissonratio equal 1.0/(1.0+274.944570986819/${C12cubic})
variable poissonratio equal 1.0/(1.0+274.944570986819/101.044944140528)

# For Stillinger-Weber silicon, the analytical results
# are known to be (E. R. Cowley, 1988):
#               C11 = 151.4 GPa
#               C12 = 76.4 GPa
#               C44 = 56.4 GPa

print "========================================="
=========================================
print "Components of the Elastic Constant Tensor"
Components of the Elastic Constant Tensor
print "========================================="
=========================================

print "Elastic Constant C11all = ${C11all} ${cunits}"
Elastic Constant C11all = 274.944570783108 GPa
print "Elastic Constant C22all = ${C22all} ${cunits}"
Elastic Constant C22all = 274.944570784096 GPa
print "Elastic Constant C33all = ${C33all} ${cunits}"
Elastic Constant C33all = 274.944571393254 GPa

print "Elastic Constant C12all = ${C12all} ${cunits}"
Elastic Constant C12all = 101.044944023565 GPa
print "Elastic Constant C13all = ${C13all} ${cunits}"
Elastic Constant C13all = 101.044944198772 GPa
print "Elastic Constant C23all = ${C23all} ${cunits}"
Elastic Constant C23all = 101.044944199248 GPa

print "Elastic Constant C44all = ${C44all} ${cunits}"
Elastic Constant C44all = 97.0203362239757 GPa
print "Elastic Constant C55all = ${C55all} ${cunits}"
Elastic Constant C55all = 97.020336223976 GPa
print "Elastic Constant C66all = ${C66all} ${cunits}"
Elastic Constant C66all = 97.0203364362463 GPa

print "Elastic Constant C14all = ${C14all} ${cunits}"
Elastic Constant C14all = -3.29355324857962e-10 GPa
print "Elastic Constant C15all = ${C15all} ${cunits}"
Elastic Constant C15all = -2.37257601193514e-10 GPa
print "Elastic Constant C16all = ${C16all} ${cunits}"
Elastic Constant C16all = 5.75292018966583e-11 GPa

print "Elastic Constant C24all = ${C24all} ${cunits}"
Elastic Constant C24all = -2.52233582421029e-10 GPa
print "Elastic Constant C25all = ${C25all} ${cunits}"
Elastic Constant C25all = -2.5501437378673e-10 GPa
print "Elastic Constant C26all = ${C26all} ${cunits}"
Elastic Constant C26all = 1.08293554025489e-10 GPa

print "Elastic Constant C34all = ${C34all} ${cunits}"
Elastic Constant C34all = -2.88467072337825e-10 GPa
print "Elastic Constant C35all = ${C35all} ${cunits}"
Elastic Constant C35all = -3.10234987297508e-10 GPa
print "Elastic Constant C36all = ${C36all} ${cunits}"
Elastic Constant C36all = 1.18637300266954e-11 GPa

print "Elastic Constant C45all = ${C45all} ${cunits}"
Elastic Constant C45all = -8.44341641249908e-11 GPa
print "Elastic Constant C46all = ${C46all} ${cunits}"
Elastic Constant C46all = 1.01661571729652e-10 GPa
print "Elastic Constant C56all = ${C56all} ${cunits}"
Elastic Constant C56all = -4.89103225239439e-11 GPa

print "========================================="
=========================================
print "Average properties for a cubic crystal"
Average properties for a cubic crystal
print "========================================="
=========================================

print "Bulk Modulus = ${bulkmodulus} ${cunits}"
Bulk Modulus = 159.011486422625 GPa
print "Shear Modulus 1 = ${shearmodulus1} ${cunits}"
Shear Modulus 1 = 97.0203362947327 GPa
print "Shear Modulus 2 = ${shearmodulus2} ${cunits}"
Shear Modulus 2 = 86.9498134231455 GPa
print "Poisson Ratio = ${poissonratio}"
Poisson Ratio = 0.268744047573519

include print.mod
print "========================================="  append ../results.txt
=========================================
print "Components of the Elastic Constant Tensor"  append ../results.txt
Components of the Elastic Constant Tensor
print "Elastic Constant C11all = ${C11all} ${cunits}"  append ../results.txt
Elastic Constant C11all = 274.944570783108 GPa
print "Elastic Constant C12all = ${C12all} ${cunits}"  append ../results.txt
Elastic Constant C12all = 101.044944023565 GPa
print "Elastic Constant C44all = ${C44all} ${cunits}"  append ../results.txt
Elastic Constant C44all = 97.0203362239757 GPa

print "Average properties for a cubic crystal"  append ../results.txt
Average properties for a cubic crystal

print "Bulk Modulus = ${bulkmodulus} ${cunits}"  append ../results.txt
Bulk Modulus = 159.011486422625 GPa
print "Shear Modulus 1 = ${shearmodulus1} ${cunits}"  append ../results.txt
Shear Modulus 1 = 97.0203362947327 GPa
print "Shear Modulus 2 = ${shearmodulus2} ${cunits}"  append ../results.txt
Shear Modulus 2 = 86.9498134231455 GPa
print "Poisson Ratio = ${poissonratio}"  append ../results.txt
Poisson Ratio = 0.268744047573519
Total wall time: 0:00:10
