
clear
units           metal
boundary        p p p
dimension       3
atom_style      atomic

#-------Define geometry  (2d X 2d) -------------------------------------------------
variable        latparam equal ${lat}
variable        latparam equal 2.833167
lattice         bcc ${latparam} orient x -1 1 0 orient y 1 1 1 orient z 1 1 -2
lattice         bcc 2.833167 orient x -1 1 0 orient y 1 1 1 orient z 1 1 -2
Lattice spacing in x,y,z = 4.0067032 4.9071892 4.6265423
region          box block 0 20 0 1 0 3 units lattice
create_box      1 box
Created orthogonal box = (0 0 0) to (80.134064 4.9071892 13.879627)
  8 by 1 by 2 MPI processor grid
create_atoms    1 box
Created 480 atoms
  using lattice units in orthogonal box = (0 0 0) to (80.134064 4.9071892 13.879627)
  create_atoms CPU = 0.001 seconds

#-------Define interatomic potential-----------------------------------
include         ../potential.in
#pair_style      aenet
#pair_coeff      * * v-1 Fe 15tw-15tw.nn Fe
#----------------------NEUip
pair_style  pace
ACE version: 2021.10.25
Recursive evaluator is used
#pair_coeff  * * /data/lei/train_ace_2021_12_08/training_ace_iron_2022_08_12_v2/interim_potential_0.yace Fe
#pair_coeff  * * /data/lei/train_ace_2021_12_08/training_ace_iron_2022_08_12_v3_iter2000/interim_potential_0.yace Fe
pair_coeff  * * /home/lei/automatic_workflow_IAP_v1_2021_12_01/ace_potential/15_5_4_3/interim_potential_0.yace Fe
Loading /home/lei/automatic_workflow_IAP_v1_2021_12_01/ace_potential/15_5_4_3/interim_potential_0.yace
Total number of basis functions
	Fe: 15 (r=1) 755 (r>1)
Mapping LAMMPS atom type #1(Fe) -> ACE species type #0
#pair_coeff  * * /data/lei/train_ace_2021_12_08/training_ace_iron_2022_08_12_v3_iter2000/output_potential.yace Fe
# Addition
#newton  off

#pair_style	nequip
#pair_coeff	* * /data/lei/nequip_2022_07_05/neqip/db1-3.pth Fe

# ---------------------GAP--------------------
#pair_style      quip
#pair_coeff      * * /home/lei/gap_training/l_4_n_8_allNewData/gap_Fe_test.xml "Potential xml_label=GAP_2021_11_30_60_3_11_7_525" 26
#pair_coeff      * * /home/lei/gap_training/l_6_n_12_allNewData/gap_Fe_test.xml "Potential xml_label=GAP_2021_12_1_60_0_17_25_709" 26
#pair_coeff      * * /home/lei/gap_training_2021_12_13/l_6_n_12_allNewData_turboSOAP/gap_Fe_test.xml "Potential xml_label=GAP_2021_12_12_60_17_6_15_829" 26 # TurboSOAP descriptor
#pair_coeff      * * /home/lei/gap_training_2021_12_13/l_6_n_12_allNewData_doubleSOAP/gap_Fe_test.xml "Potential xml_label=GAP_2021_12_14_60_8_16_28_553" 26
#pair_coeff      * * /home/lei/gap_training_2021_12_13/l_6_n_12_newdata_2021_12_16/gap_Fe_test.xml "Potential xml_label=GAP_2021_12_17_60_2_59_46_132" 26
#pair_coeff      * * /home/lei/gap_training_2021_12_13/l_6_n_12_newdata_doubleSOAP_2021_12_17/gap_Fe_test.xml   "Potential xml_label=GAP_2021_12_17_60_21_56_31_840" 26
#pair_coeff      * * /data/lei/gap_training_2021_12_13/l_6_n_12_newdata_doubleSOAP_2021_12_21/gap_Fe_test.xml   "Potential xml_label=GAP_2021_12_21_60_14_55_52_923" 26
#pair_coeff      * * /home/lei/gap_training_2021_12_13/l_6_n_12_newdata_doubleSOAP_Rcut6_2021_12_21/gap_Fe_test.xml   "Potential xml_label=GAP_2021_12_21_60_22_39_47_189" 26
#pair_coeff      * * /data/lei/gap_training_addCracks_2022_01_25/doubSOAP_R5_2022_01_25/gap_Fe_test.xml   "Potential xml_label=GAP_2022_1_26_60_7_10_9_751" 26

#pair_coeff      * * /home/p301616/gap_trainedOn_nieuwpoort/doubSOAP_R5_2022_01_28/gap_Fe_test.xml   "Potential xml_label=GAP_2022_1_29_60_3_44_50_986" 26

#pair_coeff      * * /home/lei/gap_training_addCracks_2022_01_25/doubSOAP_R5_2022_02_10_iter3/gap_Fe_test.xml   "Potential xml_label=GAP_2022_2_11_60_3_6_24_998" 26
#pair_coeff      * * /home/lei/gap_training_addCracks/doubSOAP_R5_2022_02_23_iter8/gap_Fe_test.xml   "Potential xml_label=GAP_2022_2_23_60_14_2_51_919" 26
#pair_coeff      * * /home/lei/gap_training_addCracks/turboSOAP_iter10/gap_Fe_test.xml   "Potential xml_label=GAP_2022_3_8_60_9_8_45_147" 26
#pair_coeff      * * /home/lei/gap_training_addCracks/turboSOAP_iter11/gap_Fe_test.xml   "Potential xml_label=GAP_2022_3_8_60_14_22_10_147" 26
#pair_coeff      * * /home/lei/gap_training_addCracks/doubSOAP_R5_2022_03_08_iter11/gap_Fe_test.xml   "Potential xml_label=GAP_2022_3_8_60_13_19_13_884" 26
#pair_coeff      * * /home/lei/gap_training_addCracks/turboSOAP_iter11_2/gap_Fe_test.xml   "Potential xml_label=GAP_2022_3_9_60_20_54_41_133" 26
#pair_coeff      * * /home/lei/gap_training_addCracks/turboSOAP_iter11/gap_Fe_test.xml   "Potential xml_label=GAP_2022_3_10_60_5_9_4_798" 26
#pair_coeff      * * /home/lei/gap_training_addCracks/turboSOAP_iter11_basis10/gap_Fe_test.xml   "Potential xml_label=GAP_2022_3_10_60_10_51_48_731" 26
#pair_coeff      * * /home/lei/gap_training_addCracks/doubleturboSOAP_iter11/gap_Fe_test.xml   "Potential xml_label=GAP_2022_3_9_60_23_12_29_37" 26
#pair_coeff      * * /home/lei/gap_training_addCracks/turboSOAP_iter11_compressfile/gap_Fe_test.xml   "Potential xml_label=GAP_2022_3_10_60_11_56_19_400" 26
#pair_coeff      * * /home/lei/gap_snellius/doubleturboSOAP_iter11_basis8/gap_Fe_test.xml   "Potential xml_label=GAP_2022_3_10_60_18_34_37_91" 26
#pair_coeff      * * /home/lei/gap_snellius/doubleturboSOAP_iter0_basis8/gap_Fe_test.xml "Potential xml_label=GAP_2022_3_11_60_22_7_9_623" 26
#pair_coeff      * * /home/lei/gap_snellius/doubleturboSOAP_iter0_hcp_basis8/gap_Fe_test.xml "Potential xml_label=GAP_2022_3_28_120_15_22_12_14" 26
#pair_coeff      * * /home/lei/gap_snellius/final/gap_Fe_test.xml "Potential xml_label=GAP_2022_5_28_120_3_13_35_983" 26
#---------------------------------------------

#---------------------ADP---------------------
# pair_style adp
# pair_coeff * * /home/lei/crackTip_ADP/Fe_nmFe.2021.adp.alloy Fe
#---------------------------------------------
neighbor        2.0 bin
neigh_modify    every 1 delay 0 check yes

#-------Define atom mass (no needed for moelcular statics) ------------
mass            1 55.845

#------Define upper and lower regions to move--------------------------
variable        xmid equal (xlo+xhi)/2
region          upper block INF ${xmid} INF INF INF INF units box
region          upper block INF 40.0670319586789 INF INF INF INF units box
region          lower block ${xmid} INF INF INF INF INF units box
region          lower block 40.0670319586789 INF INF INF INF INF units box
group           upper region upper
240 atoms in group upper
group           lower region lower
240 atoms in group lower

#----------------------------------------------------------------------
compute         eng all pe/atom
compute         new all temp
compute         csym all centro/atom bcc
compute         poten all pe
compute         stress all stress/atom NULL

thermo          10
thermo_style    custom step pe lx ly lz pxx pyy pzz pxy pxz pyz press

min_style       cg
minimize        1.0e-18 1.0e-9 10000 10000
Neighbor list info ...
  update every 1 steps, delay 0 steps, check yes
  max neighbors/atom: 2000, page size: 100000
  master list distance cutoff = 8
  ghost atom cutoff = 8
  binsize = 4, bins = 21 2 4
  2 neighbor lists, perpetual/occasional/extra = 1 1 0
  (1) pair pace, perpetual
      attributes: full, newton on
      pair build: full/bin/atomonly
      stencil: full/bin/3d
      bin: standard
  (2) compute centro/atom, occasional, copy from (1)
      attributes: full, newton on
      pair build: copy
      stencil: none
      bin: none
Per MPI rank memory allocation (min/avg/max) = 5.107 | 5.107 | 5.107 Mbytes
Step PotEng Lx Ly Lz Pxx Pyy Pzz Pxy Pxz Pyz Press 
       0   -2512.0546    80.134064    4.9071892    13.879627   -59.392967   -59.392967   -59.392967 -4.8584489e-11 -6.4364467e-11 -7.8385569e-11   -59.392967 
       1   -2512.0546    80.134064    4.9071892    13.879627   -59.392967   -59.392967   -59.392967 4.464917e-12 -5.0927959e-11 -6.6671273e-11   -59.392967 
Loop time of 0.0367358 on 16 procs for 1 steps with 480 atoms

99.9% CPU use with 16 MPI tasks x no OpenMP threads

Minimization stats:
  Stopping criterion = force tolerance
  Energy initial, next-to-last, final = 
     -2512.05461947369  -2512.05461947369   -2512.0546194737
  Force two-norm initial, final = 4.1882292e-12 6.0141637e-12
  Force max component initial, final = 4.126699e-13 6.4900862e-13
  Final line search alpha, max atom move = 1 6.4900862e-13
  Iterations, force evaluations = 1 2

MPI task timing breakdown:
Section |  min time  |  avg time  |  max time  |%varavg| %total
---------------------------------------------------------------
Pair    | 0.022324   | 0.028345   | 0.036066   |   2.5 | 77.16
Neigh   | 0          | 0          | 0          |   0.0 |  0.00
Comm    | 0.00026673 | 0.0059792  | 0.014004   |   5.2 | 16.28
Output  | 0          | 0          | 0          |   0.0 |  0.00
Modify  | 0          | 0          | 0          |   0.0 |  0.00
Other   |            | 0.002412   |            |       |  6.57

Nlocal:             30 ave          34 max          26 min
Histogram: 1 1 3 2 0 2 2 3 1 1
Nghost:            924 ave         928 max         920 min
Histogram: 1 1 3 2 0 2 2 3 1 1
Neighs:              0 ave           0 max           0 min
Histogram: 16 0 0 0 0 0 0 0 0 0
FullNghs:         5040 ave        5712 max        4368 min
Histogram: 1 1 3 2 0 2 2 3 1 1

Total # of neighbors = 80640
Ave neighs/atom = 168
Neighbor list builds = 0
Dangerous builds = 0

variable        tmp equal "pe"
variable        pe0 equal ${tmp}
variable        pe0 equal -2512.0546194737

print           "displacement energy(eV/Ang^2) energy(J/m^2)" append ./sfe_iron_112.csv
displacement energy(eV/Ang^2) energy(J/m^2)
print           "0.0 0.0 0.0" append ./sfe_iron_112.csv
0.0 0.0 0.0
#---------start loop--------------------------------------------------
label           loopn
variable        n loop 100

reset_timestep  0

fix             freeze all setforce NULL 0.0  0.0
displace_atoms  upper move 0 0 0.05 units box
Displacing atoms ...

dump            dump_img all custom 5000 sfe_112.$n id type x y z c_eng c_csym
dump            dump_img all custom 5000 sfe_112.1 id type x y z c_eng c_csym
min_style       cg
minimize        1.0e-18 1.0e-9 10000 10000
Per MPI rank memory allocation (min/avg/max) = 6.99 | 6.99 | 6.99 Mbytes
Step PotEng Lx Ly Lz Pxx Pyy Pzz Pxy Pxz Pyz Press 
       0   -2511.9956    80.134064    4.9071892    13.879627    83.286803   -32.674812   -79.852242 -1.8381118e-11 -2.4198546e-11   -24.121389   -9.7467507 
      10   -2511.9957    80.134064    4.9071892    13.879627     82.84138   -32.819228   -79.846422 -5.0515484e-13 8.442604e-11   -23.990315   -9.9414231 
      20   -2511.9957    80.134064    4.9071892    13.879627    82.841373   -32.819228   -79.846417 1.5423518e-11 3.9613917e-11    -23.99031    -9.941424 
      30   -2511.9957    80.134064    4.9071892    13.879627    82.841373   -32.819228   -79.846416 4.8429684e-11 4.0901247e-12    -23.99031    -9.941424 
Loop time of 0.770967 on 16 procs for 30 steps with 480 atoms

99.9% CPU use with 16 MPI tasks x no OpenMP threads

Minimization stats:
  Stopping criterion = force tolerance
  Energy initial, next-to-last, final = 
     -2511.99561201356  -2511.99573418796    -2511.995734188
  Force two-norm initial, final = 0.042088482 9.5360356e-10
  Force max component initial, final = 0.0059068259 8.5871837e-11
  Final line search alpha, max atom move = 1 8.5871837e-11
  Iterations, force evaluations = 30 60

MPI task timing breakdown:
Section |  min time  |  avg time  |  max time  |%varavg| %total
---------------------------------------------------------------
Pair    | 0.4153     | 0.58749    | 0.76161    |  14.8 | 76.20
Neigh   | 0          | 0          | 0          |   0.0 |  0.00
Comm    | 0.0052335  | 0.14296    | 0.28676    |  26.7 | 18.54
Output  | 0.000101   | 0.00015475 | 0.00051943 |   0.0 |  0.02
Modify  | 2.5694e-05 | 5.0078e-05 | 8.124e-05  |   0.0 |  0.01
Other   |            | 0.04031    |            |       |  5.23

Nlocal:             30 ave          34 max          25 min
Histogram: 1 0 1 2 4 1 2 2 2 1
Nghost:            924 ave         929 max         920 min
Histogram: 1 2 2 2 1 4 2 1 0 1
Neighs:              0 ave           0 max           0 min
Histogram: 16 0 0 0 0 0 0 0 0 0
FullNghs:         5052 ave        5736 max        4200 min
Histogram: 1 0 1 2 4 1 2 2 2 1

Total # of neighbors = 80832
Ave neighs/atom = 168.4
Neighbor list builds = 0
Dangerous builds = 0
undump          dump_img
unfix           freeze

variable        tmp equal "pe"
variable        pe1 equal ${tmp}
variable        pe1 equal -2511.995734188
variable        tmp equal "lx"
variable        LX equal ${tmp}
variable        LX equal 80.1340639173579
variable        tmp equal "ly"
variable        LY equal ${tmp}
variable        LY equal 4.90718919032749
variable        tmp equal "lz"
variable        LZ equal ${tmp}
variable        LZ equal 13.8796270121836
variable        A1  equal ${LY}*${LZ}
variable        A1  equal 4.90718919032749*${LZ}
variable        A1  equal 4.90718919032749*13.8796270121836
variable        SFE0 equal (${pe1}-${pe0})/(2*${A1})
variable        SFE0 equal (-2511.995734188-${pe0})/(2*${A1})
variable        SFE0 equal (-2511.995734188--2512.0546194737)/(2*${A1})
variable        SFE0 equal (-2511.995734188--2512.0546194737)/(2*68.1099556399648)
# units conversion: eV/Ang^2 to J/m^2
variable        SFE equal ${SFE0}*16.0217733
variable        SFE equal 0.000432281045749145*16.0217733
variable        dis equal ${n}*0.05+0.00000001
variable        dis equal 1*0.05+0.00000001

print           "${dis} ${SFE0} ${SFE}" append ./sfe_iron_112.csv
0.05000001 0.000432281045749145 0.00692590891687973

next            n
jump            in.sfe_112 loopn
variable        n loop 100

reset_timestep  0

fix             freeze all setforce NULL 0.0  0.0
displace_atoms  upper move 0 0 0.05 units box
Displacing atoms ...

dump            dump_img all custom 5000 sfe_112.$n id type x y z c_eng c_csym
dump            dump_img all custom 5000 sfe_112.2 id type x y z c_eng c_csym
min_style       cg
minimize        1.0e-18 1.0e-9 10000 10000
Per MPI rank memory allocation (min/avg/max) = 6.99 | 6.99 | 6.99 Mbytes
Step PotEng Lx Ly Lz Pxx Pyy Pzz Pxy Pxz Pyz Press 
       0   -2511.8201    80.134064    4.9071892    13.879627    505.87978    47.567056   -139.15796 3.1906232e-11 7.2937841e-11   -94.258762    138.09629 
      10   -2511.8212    80.134064    4.9071892    13.879627    501.26816    46.227094   -138.72619 2.2984545e-11 -1.8120393e-11   -92.766681    136.25635 
      20   -2511.8212    80.134064    4.9071892    13.879627     501.2646    46.226591   -138.72507 1.8592957e-11 -1.0728837e-10   -92.765272    136.25537 
      30   -2511.8212    80.134064    4.9071892    13.879627    501.26458    46.226597   -138.72501 -4.4364002e-11 3.3014313e-10   -92.765229    136.25539 
      36   -2511.8212    80.134064    4.9071892    13.879627    501.26458    46.226597   -138.72501 -3.5116409e-11 1.1954245e-10   -92.765228    136.25539 
Loop time of 0.979791 on 16 procs for 36 steps with 480 atoms

100.0% CPU use with 16 MPI tasks x no OpenMP threads

Minimization stats:
  Stopping criterion = force tolerance
  Energy initial, next-to-last, final = 
     -2511.82013257107   -2511.8211991301  -2511.82119913003
  Force two-norm initial, final = 0.12523611 7.7340391e-10
  Force max component initial, final = 0.017585432 7.3917761e-11
  Final line search alpha, max atom move = 1 7.3917761e-11
  Iterations, force evaluations = 36 72

MPI task timing breakdown:
Section |  min time  |  avg time  |  max time  |%varavg| %total
---------------------------------------------------------------
Pair    | 0.44194    | 0.71435    | 0.96889    |  22.7 | 72.91
Neigh   | 0          | 0          | 0          |   0.0 |  0.00
Comm    | 0.0070586  | 0.22937    | 0.45789    |  33.0 | 23.41
Output  | 0.00012208 | 0.00017068 | 0.00065112 |   0.0 |  0.02
Modify  | 2.6437e-05 | 6.2184e-05 | 0.00010831 |   0.0 |  0.01
Other   |            | 0.03584    |            |       |  3.66

Nlocal:             30 ave          36 max          22 min
Histogram: 1 2 2 0 1 4 0 1 1 4
Nghost:            948 ave         972 max         918 min
Histogram: 3 1 0 1 2 1 0 2 4 2
Neighs:              0 ave           0 max           0 min
Histogram: 16 0 0 0 0 0 0 0 0 0
FullNghs:         5052 ave        6048 max        3716 min
Histogram: 1 2 2 0 1 4 0 1 1 4

Total # of neighbors = 80832
Ave neighs/atom = 168.4
Neighbor list builds = 0
Dangerous builds = 0
undump          dump_img
unfix           freeze

variable        tmp equal "pe"
variable        pe1 equal ${tmp}
variable        pe1 equal -2511.82119913003
variable        tmp equal "lx"
variable        LX equal ${tmp}
variable        LX equal 80.1340639173579
variable        tmp equal "ly"
variable        LY equal ${tmp}
variable        LY equal 4.90718919032749
variable        tmp equal "lz"
variable        LZ equal ${tmp}
variable        LZ equal 13.8796270121836
variable        A1  equal ${LY}*${LZ}
variable        A1  equal 4.90718919032749*${LZ}
variable        A1  equal 4.90718919032749*13.8796270121836
variable        SFE0 equal (${pe1}-${pe0})/(2*${A1})
variable        SFE0 equal (-2511.82119913003-${pe0})/(2*${A1})
variable        SFE0 equal (-2511.82119913003--2512.0546194737)/(2*${A1})
variable        SFE0 equal (-2511.82119913003--2512.0546194737)/(2*68.1099556399648)
# units conversion: eV/Ang^2 to J/m^2
variable        SFE equal ${SFE0}*16.0217733
variable        SFE equal 0.001713555246635*16.0217733
variable        dis equal ${n}*0.05+0.00000001
variable        dis equal 2*0.05+0.00000001

print           "${dis} ${SFE0} ${SFE}" append ./sfe_iron_112.csv
0.10000001 0.001713555246635 0.0274541936986116

next            n
jump            in.sfe_112 loopn
variable        n loop 100

reset_timestep  0

fix             freeze all setforce NULL 0.0  0.0
displace_atoms  upper move 0 0 0.05 units box
Displacing atoms ...

dump            dump_img all custom 5000 sfe_112.$n id type x y z c_eng c_csym
dump            dump_img all custom 5000 sfe_112.3 id type x y z c_eng c_csym
min_style       cg
minimize        1.0e-18 1.0e-9 10000 10000
Per MPI rank memory allocation (min/avg/max) = 6.99 | 6.99 | 6.99 Mbytes
Step PotEng Lx Ly Lz Pxx Pyy Pzz Pxy Pxz Pyz Press 
       0   -2511.5343    80.134064    4.9071892    13.879627    1187.1907    179.80164   -231.38082 -3.4432006e-11 1.8693988e-10   -202.46617    378.53716 
      10   -2511.5371    80.134064    4.9071892    13.879627    1172.7001    176.09248    -228.7268 7.8103457e-11 -1.211068e-10   -197.32782    373.35525 
      20   -2511.5371    80.134064    4.9071892    13.879627    1172.6599    176.08693   -228.71216 1.7654347e-10 -4.5874578e-10   -197.31184    373.34488 
      30   -2511.5371    80.134064    4.9071892    13.879627    1172.6587    176.08686   -228.71111 -8.8581346e-11 2.2200741e-10   -197.31098    373.34481 
      40   -2511.5371    80.134064    4.9071892    13.879627    1172.6587    176.08685    -228.7111 -1.6083478e-11 5.2145016e-12   -197.31097    373.34481 
      43   -2511.5371    80.134064    4.9071892    13.879627    1172.6587    176.08685    -228.7111 4.5594298e-11 1.8042176e-10   -197.31097    373.34481 
Loop time of 1.19216 on 16 procs for 43 steps with 480 atoms

100.0% CPU use with 16 MPI tasks x no OpenMP threads

Minimization stats:
  Stopping criterion = force tolerance
  Energy initial, next-to-last, final = 
     -2511.53434981722  -2511.53713015116   -2511.5371301512
  Force two-norm initial, final = 0.20413081 8.870451e-10
  Force max component initial, final = 0.028687487 8.8607275e-11
  Final line search alpha, max atom move = 1 8.8607275e-11
  Iterations, force evaluations = 43 86

MPI task timing breakdown:
Section |  min time  |  avg time  |  max time  |%varavg| %total
---------------------------------------------------------------
Pair    | 0.52676    | 0.86136    | 1.1756     |  25.6 | 72.25
Neigh   | 0          | 0          | 0          |   0.0 |  0.00
Comm    | 0.0096033  | 0.28477    | 0.56838    |  37.0 | 23.89
Output  | 0.00018655 | 0.00025193 | 0.00090763 |   0.0 |  0.02
Modify  | 3.3349e-05 | 7.2314e-05 | 0.00011662 |   0.0 |  0.01
Other   |            | 0.0457     |            |       |  3.83

Nlocal:             30 ave          36 max          22 min
Histogram: 1 2 2 0 1 4 0 1 1 4
Nghost:            948 ave         972 max         918 min
Histogram: 3 1 0 1 2 1 0 2 4 2
Neighs:              0 ave           0 max           0 min
Histogram: 16 0 0 0 0 0 0 0 0 0
FullNghs:         5052 ave        6048 max        3716 min
Histogram: 1 2 2 0 1 4 0 1 1 4

Total # of neighbors = 80832
Ave neighs/atom = 168.4
Neighbor list builds = 0
Dangerous builds = 0
undump          dump_img
unfix           freeze

variable        tmp equal "pe"
variable        pe1 equal ${tmp}
variable        pe1 equal -2511.5371301512
variable        tmp equal "lx"
variable        LX equal ${tmp}
variable        LX equal 80.1340639173579
variable        tmp equal "ly"
variable        LY equal ${tmp}
variable        LY equal 4.90718919032749
variable        tmp equal "lz"
variable        LZ equal ${tmp}
variable        LZ equal 13.8796270121836
variable        A1  equal ${LY}*${LZ}
variable        A1  equal 4.90718919032749*${LZ}
variable        A1  equal 4.90718919032749*13.8796270121836
variable        SFE0 equal (${pe1}-${pe0})/(2*${A1})
variable        SFE0 equal (-2511.5371301512-${pe0})/(2*${A1})
variable        SFE0 equal (-2511.5371301512--2512.0546194737)/(2*${A1})
variable        SFE0 equal (-2511.5371301512--2512.0546194737)/(2*68.1099556399648)
# units conversion: eV/Ang^2 to J/m^2
variable        SFE equal ${SFE0}*16.0217733
variable        SFE equal 0.00379892570504183*16.0217733
variable        dis equal ${n}*0.05+0.00000001
variable        dis equal 3*0.05+0.00000001

print           "${dis} ${SFE0} ${SFE}" append ./sfe_iron_112.csv
0.15000001 0.00379892570504183 0.0608655264297229

next            n
jump            in.sfe_112 loopn
variable        n loop 100

reset_timestep  0

fix             freeze all setforce NULL 0.0  0.0
displace_atoms  upper move 0 0 0.05 units box
Displacing atoms ...

dump            dump_img all custom 5000 sfe_112.$n id type x y z c_eng c_csym
dump            dump_img all custom 5000 sfe_112.4 id type x y z c_eng c_csym
min_style       cg
minimize        1.0e-18 1.0e-9 10000 10000
Per MPI rank memory allocation (min/avg/max) = 6.99 | 6.99 | 6.99 Mbytes
Step PotEng Lx Ly Lz Pxx Pyy Pzz Pxy Pxz Pyz Press 
       0    -2511.148    80.134064    4.9071892    13.879627    2090.7001    361.42336   -364.28496 -2.8484215e-11 2.1170876e-10   -338.40871    695.94616 
      10    -2511.153    80.134064    4.9071892    13.879627    2061.8302    354.81855   -348.06567 1.1084075e-10 -3.4741617e-10   -325.77556    689.52769 
      20    -2511.153    80.134064    4.9071892    13.879627    2061.7028    354.80384   -347.95227 -3.5230476e-11 -1.4261662e-10    -325.7079    689.51813 
      30    -2511.153    80.134064    4.9071892    13.879627    2061.6975    354.80356   -347.94472 7.3491882e-11 -2.7141481e-10   -325.70364    689.51877 
      40    -2511.153    80.134064    4.9071892    13.879627    2061.6974    354.80356   -347.94466 -1.7273037e-11 3.180846e-11   -325.70361    689.51878 
      46    -2511.153    80.134064    4.9071892    13.879627    2061.6974    354.80356   -347.94465 -1.9150257e-10 3.3972478e-10   -325.70361    689.51878 
Loop time of 1.26021 on 16 procs for 46 steps with 480 atoms

100.0% CPU use with 16 MPI tasks x no OpenMP threads

Minimization stats:
  Stopping criterion = force tolerance
  Energy initial, next-to-last, final = 
     -2511.14804733428  -2511.15298473145  -2511.15298473145
  Force two-norm initial, final = 0.27468252 6.7279373e-10
  Force max component initial, final = 0.038636222 6.3069799e-11
  Final line search alpha, max atom move = 1 6.3069799e-11
  Iterations, force evaluations = 46 92

MPI task timing breakdown:
Section |  min time  |  avg time  |  max time  |%varavg| %total
---------------------------------------------------------------
Pair    | 0.56266    | 0.91556    | 1.2474     |  26.2 | 72.65
Neigh   | 0          | 0          | 0          |   0.0 |  0.00
Comm    | 0.0084727  | 0.29852    | 0.5983     |  37.9 | 23.69
Output  | 0.00015875 | 0.00023306 | 0.00088281 |   0.0 |  0.02
Modify  | 3.4042e-05 | 7.4396e-05 | 0.00011621 |   0.0 |  0.01
Other   |            | 0.04582    |            |       |  3.64

Nlocal:             30 ave          36 max          22 min
Histogram: 1 2 2 0 1 4 0 1 1 4
Nghost:            948 ave         972 max         918 min
Histogram: 3 1 0 1 2 1 0 2 4 2
Neighs:              0 ave           0 max           0 min
Histogram: 16 0 0 0 0 0 0 0 0 0
FullNghs:         5052 ave        6048 max        3716 min
Histogram: 1 2 2 0 1 4 0 1 1 4

Total # of neighbors = 80832
Ave neighs/atom = 168.4
Neighbor list builds = 0
Dangerous builds = 0
undump          dump_img
unfix           freeze

variable        tmp equal "pe"
variable        pe1 equal ${tmp}
variable        pe1 equal -2511.15298473145
variable        tmp equal "lx"
variable        LX equal ${tmp}
variable        LX equal 80.1340639173579
variable        tmp equal "ly"
variable        LY equal ${tmp}
variable        LY equal 4.90718919032749
variable        tmp equal "lz"
variable        LZ equal ${tmp}
variable        LZ equal 13.8796270121836
variable        A1  equal ${LY}*${LZ}
variable        A1  equal 4.90718919032749*${LZ}
variable        A1  equal 4.90718919032749*13.8796270121836
variable        SFE0 equal (${pe1}-${pe0})/(2*${A1})
variable        SFE0 equal (-2511.15298473145-${pe0})/(2*${A1})
variable        SFE0 equal (-2511.15298473145--2512.0546194737)/(2*${A1})
variable        SFE0 equal (-2511.15298473145--2512.0546194737)/(2*68.1099556399648)
# units conversion: eV/Ang^2 to J/m^2
variable        SFE equal ${SFE0}*16.0217733
variable        SFE equal 0.00661896439204825*16.0217733
variable        dis equal ${n}*0.05+0.00000001
variable        dis equal 4*0.05+0.00000001

print           "${dis} ${SFE0} ${SFE}" append ./sfe_iron_112.csv
0.20000001 0.00661896439204825 0.106047546970169

next            n
jump            in.sfe_112 loopn
variable        n loop 100

reset_timestep  0

fix             freeze all setforce NULL 0.0  0.0
displace_atoms  upper move 0 0 0.05 units box
Displacing atoms ...

dump            dump_img all custom 5000 sfe_112.$n id type x y z c_eng c_csym
dump            dump_img all custom 5000 sfe_112.5 id type x y z c_eng c_csym
min_style       cg
minimize        1.0e-18 1.0e-9 10000 10000
Per MPI rank memory allocation (min/avg/max) = 6.99 | 6.99 | 6.99 Mbytes
Step PotEng Lx Ly Lz Pxx Pyy Pzz Pxy Pxz Pyz Press 
       0   -2510.6747    80.134064    4.9071892    13.879627    3170.1683    589.95871    -549.8063 -1.7334959e-10 4.2993566e-10    -489.0433    1070.1069 
      10   -2510.6818    80.134064    4.9071892    13.879627    3121.9365    580.37695   -527.69043 9.3046263e-11 3.3633535e-11   -468.42481    1058.2077 
      20   -2510.6819    80.134064    4.9071892    13.879627     3121.661    580.35368   -527.49086 1.1233992e-10 -4.0503641e-10   -468.27475    1058.1746 
      30   -2510.6819    80.134064    4.9071892    13.879627    3121.6497    580.35332   -527.47896 1.1569675e-10  -2.1575e-10   -468.26651    1058.1747 
      40   -2510.6819    80.134064    4.9071892    13.879627    3121.6497    580.35333   -527.47887 6.1270394e-12 -5.6316617e-11   -468.26645    1058.1747 
      47   -2510.6819    80.134064    4.9071892    13.879627    3121.6497    580.35333   -527.47887 -1.8576662e-11 -1.8902568e-11   -468.26645    1058.1747 
Loop time of 1.29329 on 16 procs for 47 steps with 480 atoms

100.0% CPU use with 16 MPI tasks x no OpenMP threads

Minimization stats:
  Stopping criterion = force tolerance
  Energy initial, next-to-last, final = 
     -2510.67473101518  -2510.68185165341  -2510.68185165341
  Force two-norm initial, final = 0.33341011 2.835693e-10
  Force max component initial, final = 0.046938352 2.1850466e-11
  Final line search alpha, max atom move = 1 2.1850466e-11
  Iterations, force evaluations = 47 94

MPI task timing breakdown:
Section |  min time  |  avg time  |  max time  |%varavg| %total
---------------------------------------------------------------
Pair    | 0.57627    | 0.93822    | 1.2759     |  26.6 | 72.55
Neigh   | 0          | 0          | 0          |   0.0 |  0.00
Comm    | 0.010178   | 0.3067     | 0.61574    |  38.8 | 23.72
Output  | 0.00018008 | 0.00025965 | 0.00090568 |   0.0 |  0.02
Modify  | 3.7115e-05 | 8.0979e-05 | 0.00012371 |   0.0 |  0.01
Other   |            | 0.04802    |            |       |  3.71

Nlocal:             30 ave          36 max          22 min
Histogram: 1 2 2 0 1 4 0 1 1 4
Nghost:            948 ave         972 max         918 min
Histogram: 3 1 0 1 2 1 0 2 4 2
Neighs:              0 ave           0 max           0 min
Histogram: 16 0 0 0 0 0 0 0 0 0
FullNghs:         5052 ave        6048 max        3716 min
Histogram: 1 2 2 0 1 4 0 1 1 4

Total # of neighbors = 80832
Ave neighs/atom = 168.4
Neighbor list builds = 0
Dangerous builds = 0
undump          dump_img
unfix           freeze

variable        tmp equal "pe"
variable        pe1 equal ${tmp}
variable        pe1 equal -2510.68185165341
variable        tmp equal "lx"
variable        LX equal ${tmp}
variable        LX equal 80.1340639173579
variable        tmp equal "ly"
variable        LY equal ${tmp}
variable        LY equal 4.90718919032749
variable        tmp equal "lz"
variable        LZ equal ${tmp}
variable        LZ equal 13.8796270121836
variable        A1  equal ${LY}*${LZ}
variable        A1  equal 4.90718919032749*${LZ}
variable        A1  equal 4.90718919032749*13.8796270121836
variable        SFE0 equal (${pe1}-${pe0})/(2*${A1})
variable        SFE0 equal (-2510.68185165341-${pe0})/(2*${A1})
variable        SFE0 equal (-2510.68185165341--2512.0546194737)/(2*${A1})
variable        SFE0 equal (-2510.68185165341--2512.0546194737)/(2*68.1099556399648)
# units conversion: eV/Ang^2 to J/m^2
variable        SFE equal ${SFE0}*16.0217733
variable        SFE equal 0.0100775856289388*16.0217733
variable        dis equal ${n}*0.05+0.00000001
variable        dis equal 5*0.05+0.00000001

print           "${dis} ${SFE0} ${SFE}" append ./sfe_iron_112.csv
0.25000001 0.0100775856289388 0.161460792358195

next            n
jump            in.sfe_112 loopn
variable        n loop 100

reset_timestep  0

fix             freeze all setforce NULL 0.0  0.0
displace_atoms  upper move 0 0 0.05 units box
Displacing atoms ...

dump            dump_img all custom 5000 sfe_112.$n id type x y z c_eng c_csym
dump            dump_img all custom 5000 sfe_112.6 id type x y z c_eng c_csym
min_style       cg
minimize        1.0e-18 1.0e-9 10000 10000
Per MPI rank memory allocation (min/avg/max) = 6.99 | 6.991 | 6.991 Mbytes
Step PotEng Lx Ly Lz Pxx Pyy Pzz Pxy Pxz Pyz Press 
       0    -2510.129    80.134064    4.9071892    13.879627    4335.2247    863.97421   -782.79195 6.6028626e-11 3.8456949e-11   -618.14436    1472.1357 
      10   -2510.1378    80.134064    4.9071892    13.879627    4284.7215    853.32064   -727.45046 -1.6979721e-11 -2.1118731e-11   -591.68272    1470.1972 
      20   -2510.1378    80.134064    4.9071892    13.879627    4284.4475    853.30748   -726.86243 1.6771141e-10 -2.8445106e-10   -591.44609    1470.2975 
      30   -2510.1378    80.134064    4.9071892    13.879627    4284.4394    853.30784   -726.83577 -3.2590635e-11 6.7658158e-11    -591.4358    1470.3038 
      40   -2510.1378    80.134064    4.9071892    13.879627    4284.4394    853.30786   -726.83558 2.7995355e-11 4.7843052e-11   -591.43574    1470.3039 
      46   -2510.1378    80.134064    4.9071892    13.879627    4284.4394    853.30786   -726.83558 5.4230817e-11 -1.8654879e-10   -591.43574    1470.3039 
Loop time of 1.27419 on 16 procs for 46 steps with 480 atoms

100.0% CPU use with 16 MPI tasks x no OpenMP threads

Minimization stats:
  Stopping criterion = force tolerance
  Energy initial, next-to-last, final = 
     -2510.12904537088  -2510.13783658028  -2510.13783658038
  Force two-norm initial, final = 0.377366 9.4551801e-10
  Force max component initial, final = 0.053359024 7.2706736e-11
  Final line search alpha, max atom move = 1 7.2706736e-11
  Iterations, force evaluations = 46 92

MPI task timing breakdown:
Section |  min time  |  avg time  |  max time  |%varavg| %total
---------------------------------------------------------------
Pair    | 0.56601    | 0.92442    | 1.2591     |  26.6 | 72.55
Neigh   | 0          | 0          | 0          |   0.0 |  0.00
Comm    | 0.010684   | 0.30506    | 0.61314    |  38.9 | 23.94
Output  | 0.00015673 | 0.00021928 | 0.00084299 |   0.0 |  0.02
Modify  | 3.5099e-05 | 7.6686e-05 | 0.00012179 |   0.0 |  0.01
Other   |            | 0.04441    |            |       |  3.49

Nlocal:             30 ave          36 max          22 min
Histogram: 1 2 2 0 1 4 0 1 1 4
Nghost:          987.5 ave        1055 max         938 min
Histogram: 4 2 2 0 3 1 0 0 0 4
Neighs:              0 ave           0 max           0 min
Histogram: 16 0 0 0 0 0 0 0 0 0
FullNghs:         5052 ave        6048 max        3716 min
Histogram: 1 2 2 0 1 4 0 1 1 4

Total # of neighbors = 80832
Ave neighs/atom = 168.4
Neighbor list builds = 0
Dangerous builds = 0
undump          dump_img
unfix           freeze

variable        tmp equal "pe"
variable        pe1 equal ${tmp}
variable        pe1 equal -2510.13783658038
variable        tmp equal "lx"
variable        LX equal ${tmp}
variable        LX equal 80.1340639173579
variable        tmp equal "ly"
variable        LY equal ${tmp}
variable        LY equal 4.90718919032749
variable        tmp equal "lz"
variable        LZ equal ${tmp}
variable        LZ equal 13.8796270121836
variable        A1  equal ${LY}*${LZ}
variable        A1  equal 4.90718919032749*${LZ}
variable        A1  equal 4.90718919032749*13.8796270121836
variable        SFE0 equal (${pe1}-${pe0})/(2*${A1})
variable        SFE0 equal (-2510.13783658038-${pe0})/(2*${A1})
variable        SFE0 equal (-2510.13783658038--2512.0546194737)/(2*${A1})
variable        SFE0 equal (-2510.13783658038--2512.0546194737)/(2*68.1099556399648)
# units conversion: eV/Ang^2 to J/m^2
variable        SFE equal ${SFE0}*16.0217733
variable        SFE equal 0.0140712387441002*16.0217733
variable        dis equal ${n}*0.05+0.00000001
variable        dis equal 6*0.05+0.00000001

print           "${dis} ${SFE0} ${SFE}" append ./sfe_iron_112.csv
0.30000001 0.0140712387441002 0.22544619720815

next            n
jump            in.sfe_112 loopn
variable        n loop 100

reset_timestep  0

fix             freeze all setforce NULL 0.0  0.0
displace_atoms  upper move 0 0 0.05 units box
Displacing atoms ...

dump            dump_img all custom 5000 sfe_112.$n id type x y z c_eng c_csym
dump            dump_img all custom 5000 sfe_112.7 id type x y z c_eng c_csym
min_style       cg
minimize        1.0e-18 1.0e-9 10000 10000
Per MPI rank memory allocation (min/avg/max) = 6.99 | 6.991 | 6.992 Mbytes
Step PotEng Lx Ly Lz Pxx Pyy Pzz Pxy Pxz Pyz Press 
       0    -2509.526    80.134064    4.9071892    13.879627    5588.2904    1186.0992   -998.42361 1.9430537e-10 -3.1586843e-10   -720.67165     1925.322 
      10   -2509.5362    80.134064    4.9071892    13.879627    5518.3556    1175.1248   -927.76153 5.3579004e-11 -1.938491e-10   -683.73827    1921.9063 
      20   -2509.5362    80.134064    4.9071892    13.879627    5517.8881    1175.1335   -926.89161 1.0103097e-11 -2.136642e-10   -683.33679    1922.0433 
      30   -2509.5362    80.134064    4.9071892    13.879627    5517.8773    1175.1345   -926.86443 5.4882629e-11 -1.7585907e-10   -683.32471    1922.0491 
      40   -2509.5362    80.134064    4.9071892    13.879627    5517.8773    1175.1346   -926.86429 -1.548707e-10 4.2015847e-10   -683.32464    1922.0492 
      45   -2509.5362    80.134064    4.9071892    13.879627    5517.8773    1175.1346   -926.86428 1.1211178e-10 -1.7664124e-10   -683.32464    1922.0492 
Loop time of 1.25105 on 16 procs for 45 steps with 480 atoms

100.0% CPU use with 16 MPI tasks x no OpenMP threads

Minimization stats:
  Stopping criterion = force tolerance
  Energy initial, next-to-last, final = 
     -2509.52595856267  -2509.53616485504  -2509.53616485497
  Force two-norm initial, final = 0.41325155 9.5665486e-10
  Force max component initial, final = 0.058566789 6.6877476e-11
  Final line search alpha, max atom move = 1 6.6877476e-11
  Iterations, force evaluations = 45 90

MPI task timing breakdown:
Section |  min time  |  avg time  |  max time  |%varavg| %total
---------------------------------------------------------------
Pair    | 0.557      | 0.90898    | 1.2355     |  26.3 | 72.66
Neigh   | 0          | 0          | 0          |   0.0 |  0.00
Comm    | 0.010845   | 0.29912    | 0.6007     |  38.6 | 23.91
Output  | 0.00015546 | 0.00021886 | 0.00085433 |   0.0 |  0.02
Modify  | 3.4037e-05 | 7.334e-05  | 0.00011799 |   0.0 |  0.01
Other   |            | 0.04265    |            |       |  3.41

Nlocal:             30 ave          36 max          22 min
Histogram: 1 2 2 0 1 4 0 1 1 4
Nghost:         1008.5 ave        1133 max         938 min
Histogram: 6 2 1 1 0 0 2 2 0 2
Neighs:              0 ave           0 max           0 min
Histogram: 16 0 0 0 0 0 0 0 0 0
FullNghs:         5052 ave        6048 max        3716 min
Histogram: 1 2 2 0 1 4 0 1 1 4

Total # of neighbors = 80832
Ave neighs/atom = 168.4
Neighbor list builds = 0
Dangerous builds = 0
undump          dump_img
unfix           freeze

variable        tmp equal "pe"
variable        pe1 equal ${tmp}
variable        pe1 equal -2509.53616485497
variable        tmp equal "lx"
variable        LX equal ${tmp}
variable        LX equal 80.1340639173579
variable        tmp equal "ly"
variable        LY equal ${tmp}
variable        LY equal 4.90718919032749
variable        tmp equal "lz"
variable        LZ equal ${tmp}
variable        LZ equal 13.8796270121836
variable        A1  equal ${LY}*${LZ}
variable        A1  equal 4.90718919032749*${LZ}
variable        A1  equal 4.90718919032749*13.8796270121836
variable        SFE0 equal (${pe1}-${pe0})/(2*${A1})
variable        SFE0 equal (-2509.53616485497-${pe0})/(2*${A1})
variable        SFE0 equal (-2509.53616485497--2512.0546194737)/(2*${A1})
variable        SFE0 equal (-2509.53616485497--2512.0546194737)/(2*68.1099556399648)
# units conversion: eV/Ang^2 to J/m^2
variable        SFE equal ${SFE0}*16.0217733
variable        SFE equal 0.0184881534209367*16.0217733
variable        dis equal ${n}*0.05+0.00000001
variable        dis equal 7*0.05+0.00000001

print           "${dis} ${SFE0} ${SFE}" append ./sfe_iron_112.csv
0.35000001 0.0184881534209367 0.296213002845867

next            n
jump            in.sfe_112 loopn
variable        n loop 100

reset_timestep  0

fix             freeze all setforce NULL 0.0  0.0
displace_atoms  upper move 0 0 0.05 units box
Displacing atoms ...

dump            dump_img all custom 5000 sfe_112.$n id type x y z c_eng c_csym
dump            dump_img all custom 5000 sfe_112.8 id type x y z c_eng c_csym
min_style       cg
minimize        1.0e-18 1.0e-9 10000 10000
Per MPI rank memory allocation (min/avg/max) = 6.99 | 6.991 | 6.992 Mbytes
Step PotEng Lx Ly Lz Pxx Pyy Pzz Pxy Pxz Pyz Press 
       0   -2508.8793    80.134064    4.9071892    13.879627    6893.6583    1557.1374   -1195.0443 1.2371405e-10 -1.3596813e-10   -781.33916    2418.5838 
      10   -2508.8906    80.134064    4.9071892    13.879627    6807.1327    1548.1633   -1101.9752 -3.5980061e-11 3.3112085e-11   -735.05049    2417.7736 
      20   -2508.8906    80.134064    4.9071892    13.879627    6806.4721    1548.2266    -1100.699 -1.3629404e-10 3.6762236e-10   -734.49624    2417.9999 
      30   -2508.8906    80.134064    4.9071892    13.879627    6806.4619    1548.2288   -1100.6711 -2.1653218e-10 5.0567629e-10    -734.4844    2418.0065 
      40   -2508.8906    80.134064    4.9071892    13.879627    6806.4618    1548.2289    -1100.671 4.979849e-11 -6.8961784e-11   -734.48435    2418.0066 
      44   -2508.8906    80.134064    4.9071892    13.879627    6806.4618    1548.2289    -1100.671 -7.854343e-11 7.0917222e-11   -734.48434    2418.0066 
Loop time of 1.21396 on 16 procs for 44 steps with 480 atoms

100.0% CPU use with 16 MPI tasks x no OpenMP threads

Minimization stats:
  Stopping criterion = force tolerance
  Energy initial, next-to-last, final = 
     -2508.87928244431  -2508.89060520905  -2508.89060520904
  Force two-norm initial, final = 0.4393755 9.137425e-10
  Force max component initial, final = 0.062325881 8.3330842e-11
  Final line search alpha, max atom move = 1 8.3330842e-11
  Iterations, force evaluations = 44 88

MPI task timing breakdown:
Section |  min time  |  avg time  |  max time  |%varavg| %total
---------------------------------------------------------------
Pair    | 0.54433    | 0.88592    | 1.2014     |  25.4 | 72.98
Neigh   | 0          | 0          | 0          |   0.0 |  0.00
Comm    | 0.0084171  | 0.28374    | 0.57858    |  37.2 | 23.37
Output  | 0.00015968 | 0.00022286 | 0.00086372 |   0.0 |  0.02
Modify  | 3.3323e-05 | 7.1737e-05 | 0.00012615 |   0.0 |  0.01
Other   |            | 0.044      |            |       |  3.62

Nlocal:             30 ave          36 max          22 min
Histogram: 1 2 2 0 1 4 0 1 1 4
Nghost:         1029.5 ave        1139 max         938 min
Histogram: 6 2 0 0 0 0 2 2 0 4
Neighs:              0 ave           0 max           0 min
Histogram: 16 0 0 0 0 0 0 0 0 0
FullNghs:         5094 ave        6120 max        3732 min
Histogram: 1 2 2 0 1 4 0 1 1 4

Total # of neighbors = 81504
Ave neighs/atom = 169.8
Neighbor list builds = 0
Dangerous builds = 0
undump          dump_img
unfix           freeze

variable        tmp equal "pe"
variable        pe1 equal ${tmp}
variable        pe1 equal -2508.89060520904
variable        tmp equal "lx"
variable        LX equal ${tmp}
variable        LX equal 80.1340639173579
variable        tmp equal "ly"
variable        LY equal ${tmp}
variable        LY equal 4.90718919032749
variable        tmp equal "lz"
variable        LZ equal ${tmp}
variable        LZ equal 13.8796270121836
variable        A1  equal ${LY}*${LZ}
variable        A1  equal 4.90718919032749*${LZ}
variable        A1  equal 4.90718919032749*13.8796270121836
variable        SFE0 equal (${pe1}-${pe0})/(2*${A1})
variable        SFE0 equal (-2508.89060520904-${pe0})/(2*${A1})
variable        SFE0 equal (-2508.89060520904--2512.0546194737)/(2*${A1})
variable        SFE0 equal (-2508.89060520904--2512.0546194737)/(2*68.1099556399648)
# units conversion: eV/Ang^2 to J/m^2
variable        SFE equal ${SFE0}*16.0217733
variable        SFE equal 0.0232272524253648*16.0217733
variable        dis equal ${n}*0.05+0.00000001
variable        dis equal 8*0.05+0.00000001

print           "${dis} ${SFE0} ${SFE}" append ./sfe_iron_112.csv
0.40000001 0.0232272524253648 0.37214177274107

next            n
jump            in.sfe_112 loopn
variable        n loop 100

reset_timestep  0

fix             freeze all setforce NULL 0.0  0.0
displace_atoms  upper move 0 0 0.05 units box
Displacing atoms ...

dump            dump_img all custom 5000 sfe_112.$n id type x y z c_eng c_csym
dump            dump_img all custom 5000 sfe_112.9 id type x y z c_eng c_csym
min_style       cg
minimize        1.0e-18 1.0e-9 10000 10000
Per MPI rank memory allocation (min/avg/max) = 6.99 | 6.991 | 6.992 Mbytes
Step PotEng Lx Ly Lz Pxx Pyy Pzz Pxy Pxz Pyz Press 
       0   -2508.2034    80.134064    4.9071892    13.879627    8204.8258    1975.7391   -1399.5556 4.4388445e-11 1.2410514e-10   -781.47909    2927.0031 
      10   -2508.2151    80.134064    4.9071892    13.879627    8106.2132    1970.5393    -1288.647 3.389426e-11 -1.9189366e-10   -726.15132    2929.3685 
      20   -2508.2151    80.134064    4.9071892    13.879627    8105.3958    1970.6653   -1287.1747 1.1185106e-10 -3.7022961e-10   -725.42419    2929.6288 
      30   -2508.2151    80.134064    4.9071892    13.879627    8105.3867    1970.6686   -1287.1487 -2.2148596e-10 3.1834532e-10   -725.41151    2929.6355 
      40   -2508.2151    80.134064    4.9071892    13.879627    8105.3866    1970.6687   -1287.1486 4.7113022e-10 -1.074057e-09   -725.41145    2929.6356 
      44   -2508.2151    80.134064    4.9071892    13.879627    8105.3866    1970.6687   -1287.1486 -9.1253778e-12 -3.8848037e-11   -725.41145    2929.6356 
Loop time of 1.22587 on 16 procs for 44 steps with 480 atoms

100.0% CPU use with 16 MPI tasks x no OpenMP threads

Minimization stats:
  Stopping criterion = force tolerance
  Energy initial, next-to-last, final = 
     -2508.20342478673  -2508.21510325088  -2508.21510325093
  Force two-norm initial, final = 0.44954753 6.3295612e-10
  Force max component initial, final = 0.063816483 5.5355803e-11
  Final line search alpha, max atom move = 1 5.5355803e-11
  Iterations, force evaluations = 44 88

MPI task timing breakdown:
Section |  min time  |  avg time  |  max time  |%varavg| %total
---------------------------------------------------------------
Pair    | 0.54501    | 0.88978    | 1.2106     |  25.6 | 72.58
Neigh   | 0          | 0          | 0          |   0.0 |  0.00
Comm    | 0.0084048  | 0.2883     | 0.58541    |  37.2 | 23.52
Output  | 0.00016453 | 0.00022853 | 0.0008659  |   0.0 |  0.02
Modify  | 3.2626e-05 | 7.4674e-05 | 0.00013993 |   0.0 |  0.01
Other   |            | 0.04749    |            |       |  3.87

Nlocal:             30 ave          36 max          22 min
Histogram: 1 2 2 0 1 4 0 1 1 4
Nghost:         1029.5 ave        1139 max         938 min
Histogram: 6 2 0 0 0 0 2 2 0 4
Neighs:              0 ave           0 max           0 min
Histogram: 16 0 0 0 0 0 0 0 0 0
FullNghs:         5097 ave        6120 max        3738 min
Histogram: 1 2 2 0 1 4 0 1 1 4

Total # of neighbors = 81552
Ave neighs/atom = 169.9
Neighbor list builds = 0
Dangerous builds = 0
undump          dump_img
unfix           freeze

variable        tmp equal "pe"
variable        pe1 equal ${tmp}
variable        pe1 equal -2508.21510325093
variable        tmp equal "lx"
variable        LX equal ${tmp}
variable        LX equal 80.1340639173579
variable        tmp equal "ly"
variable        LY equal ${tmp}
variable        LY equal 4.90718919032749
variable        tmp equal "lz"
variable        LZ equal ${tmp}
variable        LZ equal 13.8796270121836
variable        A1  equal ${LY}*${LZ}
variable        A1  equal 4.90718919032749*${LZ}
variable        A1  equal 4.90718919032749*13.8796270121836
variable        SFE0 equal (${pe1}-${pe0})/(2*${A1})
variable        SFE0 equal (-2508.21510325093-${pe0})/(2*${A1})
variable        SFE0 equal (-2508.21510325093--2512.0546194737)/(2*${A1})
variable        SFE0 equal (-2508.21510325093--2512.0546194737)/(2*68.1099556399648)
# units conversion: eV/Ang^2 to J/m^2
variable        SFE equal ${SFE0}*16.0217733
variable        SFE equal 0.0281861600605485*16.0217733
variable        dis equal ${n}*0.05+0.00000001
variable        dis equal 9*0.05+0.00000001

print           "${dis} ${SFE0} ${SFE}" append ./sfe_iron_112.csv
0.45000001 0.0281861600605485 0.451592266687622

next            n
jump            in.sfe_112 loopn
variable        n loop 100

reset_timestep  0

fix             freeze all setforce NULL 0.0  0.0
displace_atoms  upper move 0 0 0.05 units box
Displacing atoms ...

dump            dump_img all custom 5000 sfe_112.$n id type x y z c_eng c_csym
dump            dump_img all custom 5000 sfe_112.10 id type x y z c_eng c_csym
min_style       cg
minimize        1.0e-18 1.0e-9 10000 10000
Per MPI rank memory allocation (min/avg/max) = 6.99 | 6.991 | 6.992 Mbytes
Step PotEng Lx Ly Lz Pxx Pyy Pzz Pxy Pxz Pyz Press 
       0    -2507.511    80.134064    4.9071892    13.879627    9491.1303      2445.06   -1585.0644 -6.3095469e-11 8.6039276e-12   -724.79723    3450.3753 
      10   -2507.5225    80.134064    4.9071892    13.879627    9385.1158    2445.1032   -1458.4026 7.7956799e-11 5.7098792e-11   -662.35988    3457.2721 
      20   -2507.5225    80.134064    4.9071892    13.879627    9384.2151    2445.3097   -1456.7479 -2.5120861e-10 4.7021768e-10   -661.51818    3457.5923 
      30   -2507.5225    80.134064    4.9071892    13.879627    9384.2077    2445.3145   -1456.7219 3.0459207e-10 -8.2662886e-10   -661.50473    3457.6001 
      40   -2507.5225    80.134064    4.9071892    13.879627    9384.2076    2445.3146   -1456.7217 -1.8309419e-10 4.8468792e-10   -661.50466    3457.6001 
      43   -2507.5225    80.134064    4.9071892    13.879627    9384.2076    2445.3146   -1456.7217 1.9554381e-11 -7.8478249e-11   -661.50466    3457.6001 
Loop time of 1.18563 on 16 procs for 43 steps with 480 atoms

100.0% CPU use with 16 MPI tasks x no OpenMP threads

Minimization stats:
  Stopping criterion = force tolerance
  Energy initial, next-to-last, final = 
     -2507.51096705094  -2507.52246854659  -2507.52246854666
  Force two-norm initial, final = 0.44945809 9.1630299e-10
  Force max component initial, final = 0.063860766 1.0110762e-10
  Final line search alpha, max atom move = 1 1.0110762e-10
  Iterations, force evaluations = 43 86

MPI task timing breakdown:
Section |  min time  |  avg time  |  max time  |%varavg| %total
---------------------------------------------------------------
Pair    | 0.52945    | 0.86449    | 1.1741     |  25.2 | 72.91
Neigh   | 0          | 0          | 0          |   0.0 |  0.00
Comm    | 0.0071645  | 0.27765    | 0.5647     |  36.9 | 23.42
Output  | 0.00017553 | 0.00024231 | 0.00094608 |   0.0 |  0.02
Modify  | 3.4309e-05 | 7.1935e-05 | 0.00010944 |   0.0 |  0.01
Other   |            | 0.04317    |            |       |  3.64

Nlocal:             30 ave          36 max          22 min
Histogram: 1 2 2 0 1 4 0 1 1 4
Nghost:         1029.5 ave        1139 max         938 min
Histogram: 6 2 0 0 0 0 2 2 0 4
Neighs:              0 ave           0 max           0 min
Histogram: 16 0 0 0 0 0 0 0 0 0
FullNghs:         5097 ave        6120 max        3738 min
Histogram: 1 2 2 0 1 4 0 1 1 4

Total # of neighbors = 81552
Ave neighs/atom = 169.9
Neighbor list builds = 0
Dangerous builds = 0
undump          dump_img
unfix           freeze

variable        tmp equal "pe"
variable        pe1 equal ${tmp}
variable        pe1 equal -2507.52246854666
variable        tmp equal "lx"
variable        LX equal ${tmp}
variable        LX equal 80.1340639173579
variable        tmp equal "ly"
variable        LY equal ${tmp}
variable        LY equal 4.90718919032749
variable        tmp equal "lz"
variable        LZ equal ${tmp}
variable        LZ equal 13.8796270121836
variable        A1  equal ${LY}*${LZ}
variable        A1  equal 4.90718919032749*${LZ}
variable        A1  equal 4.90718919032749*13.8796270121836
variable        SFE0 equal (${pe1}-${pe0})/(2*${A1})
variable        SFE0 equal (-2507.52246854666-${pe0})/(2*${A1})
variable        SFE0 equal (-2507.52246854666--2512.0546194737)/(2*${A1})
variable        SFE0 equal (-2507.52246854666--2512.0546194737)/(2*68.1099556399648)
# units conversion: eV/Ang^2 to J/m^2
variable        SFE equal ${SFE0}*16.0217733
variable        SFE equal 0.0332708403966456*16.0217733
variable        dis equal ${n}*0.05+0.00000001
variable        dis equal 10*0.05+0.00000001

print           "${dis} ${SFE0} ${SFE}" append ./sfe_iron_112.csv
0.50000001 0.0332708403966456 0.533057862335538

next            n
jump            in.sfe_112 loopn
variable        n loop 100

reset_timestep  0

fix             freeze all setforce NULL 0.0  0.0
displace_atoms  upper move 0 0 0.05 units box
Displacing atoms ...

dump            dump_img all custom 5000 sfe_112.$n id type x y z c_eng c_csym
dump            dump_img all custom 5000 sfe_112.11 id type x y z c_eng c_csym
min_style       cg
minimize        1.0e-18 1.0e-9 10000 10000
Per MPI rank memory allocation (min/avg/max) = 6.99 | 6.991 | 6.992 Mbytes
Step PotEng Lx Ly Lz Pxx Pyy Pzz Pxy Pxz Pyz Press 
       0   -2506.8133    80.134064    4.9071892    13.879627    10721.953    2962.3043   -1762.5519 -4.3019638e-11 -2.8679759e-12   -607.54629    3973.9017 
      10   -2506.8241    80.134064    4.9071892    13.879627    10610.673    2966.2164   -1625.5867 1.2553913e-10 -1.273642e-10   -542.92573    3983.7675 
      20   -2506.8241    80.134064    4.9071892    13.879627    10608.872    2965.8985   -1624.3844 -4.9537765e-11 1.0024879e-10   -542.58603    3983.4621 
      30   -2506.8241    80.134064    4.9071892    13.879627    10608.855     2965.896   -1624.3673  4.00213e-11 7.5610273e-11   -542.58047    3983.4611 
      40   -2506.8241    80.134064    4.9071892    13.879627    10608.855     2965.896   -1624.3672 -9.5164654e-12 1.3388233e-10   -542.58044    3983.4611 
      44   -2506.8241    80.134064    4.9071892    13.879627    10608.855     2965.896   -1624.3672 -1.0494184e-10 1.0715801e-10   -542.58044    3983.4611 
Loop time of 1.21142 on 16 procs for 44 steps with 480 atoms

100.0% CPU use with 16 MPI tasks x no OpenMP threads

Minimization stats:
  Stopping criterion = force tolerance
  Energy initial, next-to-last, final = 
     -2506.81330368453  -2506.82408734108   -2506.8240873411
  Force two-norm initial, final = 0.43796598 6.8290811e-10
  Force max component initial, final = 0.06227762 6.1277927e-11
  Final line search alpha, max atom move = 1 6.1277927e-11
  Iterations, force evaluations = 44 88

MPI task timing breakdown:
Section |  min time  |  avg time  |  max time  |%varavg| %total
---------------------------------------------------------------
Pair    | 0.541      | 0.88644    | 1.1997     |  25.8 | 73.17
Neigh   | 0          | 0          | 0          |   0.0 |  0.00
Comm    | 0.007029   | 0.28582    | 0.57644    |  38.6 | 23.59
Output  | 0.00015965 | 0.000226   | 0.00087296 |   0.0 |  0.02
Modify  | 3.286e-05  | 7.0924e-05 | 0.00010594 |   0.0 |  0.01
Other   |            | 0.03886    |            |       |  3.21

Nlocal:             30 ave          36 max          22 min
Histogram: 1 2 2 0 1 4 0 1 1 4
Nghost:         1029.5 ave        1139 max         938 min
Histogram: 6 2 0 0 0 0 2 2 0 4
Neighs:              0 ave           0 max           0 min
Histogram: 16 0 0 0 0 0 0 0 0 0
FullNghs:         5109 ave        6120 max        3758 min
Histogram: 1 2 2 0 1 4 0 1 1 4

Total # of neighbors = 81744
Ave neighs/atom = 170.3
Neighbor list builds = 0
Dangerous builds = 0
undump          dump_img
unfix           freeze

variable        tmp equal "pe"
variable        pe1 equal ${tmp}
variable        pe1 equal -2506.8240873411
variable        tmp equal "lx"
variable        LX equal ${tmp}
variable        LX equal 80.1340639173579
variable        tmp equal "ly"
variable        LY equal ${tmp}
variable        LY equal 4.90718919032749
variable        tmp equal "lz"
variable        LZ equal ${tmp}
variable        LZ equal 13.8796270121836
variable        A1  equal ${LY}*${LZ}
variable        A1  equal 4.90718919032749*${LZ}
variable        A1  equal 4.90718919032749*13.8796270121836
variable        SFE0 equal (${pe1}-${pe0})/(2*${A1})
variable        SFE0 equal (-2506.8240873411-${pe0})/(2*${A1})
variable        SFE0 equal (-2506.8240873411--2512.0546194737)/(2*${A1})
variable        SFE0 equal (-2506.8240873411--2512.0546194737)/(2*68.1099556399648)
# units conversion: eV/Ang^2 to J/m^2
variable        SFE equal ${SFE0}*16.0217733
variable        SFE equal 0.0383977062050141*16.0217733
variable        dis equal ${n}*0.05+0.00000001
variable        dis equal 11*0.05+0.00000001

print           "${dis} ${SFE0} ${SFE}" append ./sfe_iron_112.csv
0.55000001 0.0383977062050141 0.615199344056739

next            n
jump            in.sfe_112 loopn
variable        n loop 100

reset_timestep  0

fix             freeze all setforce NULL 0.0  0.0
displace_atoms  upper move 0 0 0.05 units box
Displacing atoms ...

dump            dump_img all custom 5000 sfe_112.$n id type x y z c_eng c_csym
dump            dump_img all custom 5000 sfe_112.12 id type x y z c_eng c_csym
min_style       cg
minimize        1.0e-18 1.0e-9 10000 10000
Per MPI rank memory allocation (min/avg/max) = 6.99 | 6.991 | 6.992 Mbytes
Step PotEng Lx Ly Lz Pxx Pyy Pzz Pxy Pxz Pyz Press 
       0   -2506.1203    80.134064    4.9071892    13.879627     11793.87    3481.5113   -1992.8557 -1.2175861e-10 1.486133e-11   -472.85386    4427.5087 
      10   -2506.1291    80.134064    4.9071892    13.879627    11678.398    3474.3069    -1850.775 1.0194351e-10 -6.2313294e-11   -420.29933    4433.9765 
      20   -2506.1291    80.134064    4.9071892    13.879627    11677.278    3474.3536   -1849.2519 -4.3801813e-11 -3.949985e-11   -419.67023    4434.1266 
      30   -2506.1291    80.134064    4.9071892    13.879627     11677.27    3474.3578   -1849.2234 -2.4873173e-10 3.0817704e-10   -419.65683    4434.1349 
      40   -2506.1291    80.134064    4.9071892    13.879627     11677.27    3474.3579   -1849.2231 -3.0895922e-10 3.5901843e-10   -419.65675    4434.1349 
      44   -2506.1291    80.134064    4.9071892    13.879627     11677.27    3474.3579   -1849.2231 -2.2813444e-10 4.5639925e-10   -419.65675    4434.1349 
Loop time of 1.2218 on 16 procs for 44 steps with 480 atoms

100.0% CPU use with 16 MPI tasks x no OpenMP threads

Minimization stats:
  Stopping criterion = force tolerance
  Energy initial, next-to-last, final = 
     -2506.12029592622  -2506.12911837386   -2506.1291183738
  Force two-norm initial, final = 0.40677753 8.4326984e-10
  Force max component initial, final = 0.058055062 7.594092e-11
  Final line search alpha, max atom move = 1 7.594092e-11
  Iterations, force evaluations = 44 88

MPI task timing breakdown:
Section |  min time  |  avg time  |  max time  |%varavg| %total
---------------------------------------------------------------
Pair    | 0.54836    | 0.88806    | 1.2095     |  25.9 | 72.68
Neigh   | 0          | 0          | 0          |   0.0 |  0.00
Comm    | 0.0078348  | 0.28999    | 0.58627    |  37.8 | 23.73
Output  | 0.00016059 | 0.00022412 | 0.00086578 |   0.0 |  0.02
Modify  | 3.2963e-05 | 7.3763e-05 | 0.00012137 |   0.0 |  0.01
Other   |            | 0.04346    |            |       |  3.56

Nlocal:             30 ave          36 max          22 min
Histogram: 1 2 2 0 1 4 0 1 1 4
Nghost:         1029.5 ave        1139 max         938 min
Histogram: 6 2 0 0 0 0 2 2 0 4
Neighs:              0 ave           0 max           0 min
Histogram: 16 0 0 0 0 0 0 0 0 0
FullNghs:         5112 ave        6120 max        3764 min
Histogram: 1 2 2 0 1 4 0 1 1 4

Total # of neighbors = 81792
Ave neighs/atom = 170.4
Neighbor list builds = 0
Dangerous builds = 0
undump          dump_img
unfix           freeze

variable        tmp equal "pe"
variable        pe1 equal ${tmp}
variable        pe1 equal -2506.1291183738
variable        tmp equal "lx"
variable        LX equal ${tmp}
variable        LX equal 80.1340639173579
variable        tmp equal "ly"
variable        LY equal ${tmp}
variable        LY equal 4.90718919032749
variable        tmp equal "lz"
variable        LZ equal ${tmp}
variable        LZ equal 13.8796270121836
variable        A1  equal ${LY}*${LZ}
variable        A1  equal 4.90718919032749*${LZ}
variable        A1  equal 4.90718919032749*13.8796270121836
variable        SFE0 equal (${pe1}-${pe0})/(2*${A1})
variable        SFE0 equal (-2506.1291183738-${pe0})/(2*${A1})
variable        SFE0 equal (-2506.1291183738--2512.0546194737)/(2*${A1})
variable        SFE0 equal (-2506.1291183738--2512.0546194737)/(2*68.1099556399648)
# units conversion: eV/Ang^2 to J/m^2
variable        SFE equal ${SFE0}*16.0217733
variable        SFE equal 0.0434995225310577*16.0217733
variable        dis equal ${n}*0.05+0.00000001
variable        dis equal 12*0.05+0.00000001

print           "${dis} ${SFE0} ${SFE}" append ./sfe_iron_112.csv
0.60000001 0.0434995225310577 0.696939488650849

next            n
jump            in.sfe_112 loopn
variable        n loop 100

reset_timestep  0

fix             freeze all setforce NULL 0.0  0.0
displace_atoms  upper move 0 0 0.05 units box
Displacing atoms ...

dump            dump_img all custom 5000 sfe_112.$n id type x y z c_eng c_csym
dump            dump_img all custom 5000 sfe_112.13 id type x y z c_eng c_csym
min_style       cg
minimize        1.0e-18 1.0e-9 10000 10000
Per MPI rank memory allocation (min/avg/max) = 6.99 | 6.991 | 6.992 Mbytes
Step PotEng Lx Ly Lz Pxx Pyy Pzz Pxy Pxz Pyz Press 
       0   -2505.4382    80.134064    4.9071892    13.879627    12673.216    3986.3966   -2307.2102 -2.1405529e-10 4.0686149e-10   -341.63325    4784.1342 
      10    -2505.445    80.134064    4.9071892    13.879627    12563.947    3983.1614   -2175.3002 1.2775529e-11 -5.7359518e-12   -296.84731    4790.6026 
      20    -2505.445    80.134064    4.9071892    13.879627    12563.116    3983.2673    -2173.998 2.9175136e-10 -2.9501043e-10   -296.30789    4790.7953 
      30    -2505.445    80.134064    4.9071892    13.879627    12563.106    3983.2736   -2173.9617 -9.5164654e-11 1.4770076e-10   -296.29137    4790.8058 
      40    -2505.445    80.134064    4.9071892    13.879627    12563.105    3983.2736   -2173.9615 7.8999699e-11 -8.1998038e-11   -296.29125    4790.8059 
      44    -2505.445    80.134064    4.9071892    13.879627    12563.105    3983.2736   -2173.9615 -7.9260424e-11 1.3296979e-10   -296.29125    4790.8059 
Loop time of 1.21837 on 16 procs for 44 steps with 480 atoms

100.0% CPU use with 16 MPI tasks x no OpenMP threads

Minimization stats:
  Stopping criterion = force tolerance
  Energy initial, next-to-last, final = 
     -2505.43819559908  -2505.44499063335  -2505.44499063334
  Force two-norm initial, final = 0.36761484 8.0437948e-10
  Force max component initial, final = 0.052690787 7.9512508e-11
  Final line search alpha, max atom move = 1 7.9512508e-11
  Iterations, force evaluations = 44 88

MPI task timing breakdown:
Section |  min time  |  avg time  |  max time  |%varavg| %total
---------------------------------------------------------------
Pair    | 0.53498    | 0.88736    | 1.2058     |  25.9 | 72.83
Neigh   | 0          | 0          | 0          |   0.0 |  0.00
Comm    | 0.0075555  | 0.28751    | 0.58448    |  38.0 | 23.60
Output  | 0.00016016 | 0.00022523 | 0.00087105 |   0.0 |  0.02
Modify  | 3.3849e-05 | 7.3087e-05 | 0.00011923 |   0.0 |  0.01
Other   |            | 0.0432     |            |       |  3.55

Nlocal:             30 ave          36 max          22 min
Histogram: 1 2 2 0 1 4 0 1 1 4
Nghost:         1029.5 ave        1139 max         938 min
Histogram: 6 2 0 0 0 0 2 2 0 4
Neighs:              0 ave           0 max           0 min
Histogram: 16 0 0 0 0 0 0 0 0 0
FullNghs:         5115 ave        6120 max        3770 min
Histogram: 1 2 2 0 1 4 0 1 1 4

Total # of neighbors = 81840
Ave neighs/atom = 170.5
Neighbor list builds = 0
Dangerous builds = 0
undump          dump_img
unfix           freeze

variable        tmp equal "pe"
variable        pe1 equal ${tmp}
variable        pe1 equal -2505.44499063334
variable        tmp equal "lx"
variable        LX equal ${tmp}
variable        LX equal 80.1340639173579
variable        tmp equal "ly"
variable        LY equal ${tmp}
variable        LY equal 4.90718919032749
variable        tmp equal "lz"
variable        LZ equal ${tmp}
variable        LZ equal 13.8796270121836
variable        A1  equal ${LY}*${LZ}
variable        A1  equal 4.90718919032749*${LZ}
variable        A1  equal 4.90718919032749*13.8796270121836
variable        SFE0 equal (${pe1}-${pe0})/(2*${A1})
variable        SFE0 equal (-2505.44499063334-${pe0})/(2*${A1})
variable        SFE0 equal (-2505.44499063334--2512.0546194737)/(2*${A1})
variable        SFE0 equal (-2505.44499063334--2512.0546194737)/(2*68.1099556399648)
# units conversion: eV/Ang^2 to J/m^2
variable        SFE equal ${SFE0}*16.0217733
variable        SFE equal 0.0485217526443502*16.0217733
variable        dis equal ${n}*0.05+0.00000001
variable        dis equal 13*0.05+0.00000001

print           "${dis} ${SFE0} ${SFE}" append ./sfe_iron_112.csv
0.65000001 0.0485217526443502 0.777404520986454

next            n
jump            in.sfe_112 loopn
variable        n loop 100

reset_timestep  0

fix             freeze all setforce NULL 0.0  0.0
displace_atoms  upper move 0 0 0.05 units box
Displacing atoms ...

dump            dump_img all custom 5000 sfe_112.$n id type x y z c_eng c_csym
dump            dump_img all custom 5000 sfe_112.14 id type x y z c_eng c_csym
min_style       cg
minimize        1.0e-18 1.0e-9 10000 10000
Per MPI rank memory allocation (min/avg/max) = 6.99 | 6.991 | 6.992 Mbytes
Step PotEng Lx Ly Lz Pxx Pyy Pzz Pxy Pxz Pyz Press 
       0   -2504.7766    80.134064    4.9071892    13.879627    13458.859    4519.4577   -2643.7575 -1.0246496e-10 4.3541088e-11   -168.62444    5111.5198 
      10   -2504.7822    80.134064    4.9071892    13.879627    13358.024    4519.9772   -2512.3308  8.31713e-11 -8.5778551e-11   -128.32556      5121.89 
      20   -2504.7822    80.134064    4.9071892    13.879627    13357.318    4520.1084   -2511.1849 2.1196949e-10 -1.0233459e-10   -127.86614    5122.0805 
      30   -2504.7822    80.134064    4.9071892    13.879627    13357.309    4520.1163     -2511.15 -3.2590635e-11 1.0976526e-10   -127.84975    5122.0918 
      40   -2504.7822    80.134064    4.9071892    13.879627    13357.309    4520.1164   -2511.1497 2.7428278e-10 -1.6399608e-10   -127.84963    5122.0919 
      44   -2504.7822    80.134064    4.9071892    13.879627    13357.309    4520.1164   -2511.1497 3.5849698e-11 4.5235801e-11   -127.84963    5122.0919 
Loop time of 1.21965 on 16 procs for 44 steps with 480 atoms

100.0% CPU use with 16 MPI tasks x no OpenMP threads

Minimization stats:
  Stopping criterion = force tolerance
  Energy initial, next-to-last, final = 
     -2504.77657451562  -2504.78223643726  -2504.78223643716
  Force two-norm initial, final = 0.33802932 8.827909e-10
  Force max component initial, final = 0.048489214 8.8729135e-11
  Final line search alpha, max atom move = 1 8.8729135e-11
  Iterations, force evaluations = 44 88

MPI task timing breakdown:
Section |  min time  |  avg time  |  max time  |%varavg| %total
---------------------------------------------------------------
Pair    | 0.53852    | 0.89061    | 1.2078     |  25.7 | 73.02
Neigh   | 0          | 0          | 0          |   0.0 |  0.00
Comm    | 0.0070909  | 0.28601    | 0.58157    |  38.0 | 23.45
Output  | 0.0001579  | 0.00022371 | 0.00088223 |   0.0 |  0.02
Modify  | 3.3992e-05 | 7.389e-05  | 0.00011364 |   0.0 |  0.01
Other   |            | 0.04273    |            |       |  3.50

Nlocal:             30 ave          36 max          22 min
Histogram: 1 2 2 0 1 4 0 1 1 4
Nghost:         1029.5 ave        1139 max         938 min
Histogram: 6 2 0 0 0 0 2 2 0 4
Neighs:              0 ave           0 max           0 min
Histogram: 16 0 0 0 0 0 0 0 0 0
FullNghs:         5115 ave        6120 max        3770 min
Histogram: 1 2 2 0 1 4 0 1 1 4

Total # of neighbors = 81840
Ave neighs/atom = 170.5
Neighbor list builds = 0
Dangerous builds = 0
undump          dump_img
unfix           freeze

variable        tmp equal "pe"
variable        pe1 equal ${tmp}
variable        pe1 equal -2504.78223643716
variable        tmp equal "lx"
variable        LX equal ${tmp}
variable        LX equal 80.1340639173579
variable        tmp equal "ly"
variable        LY equal ${tmp}
variable        LY equal 4.90718919032749
variable        tmp equal "lz"
variable        LZ equal ${tmp}
variable        LZ equal 13.8796270121836
variable        A1  equal ${LY}*${LZ}
variable        A1  equal 4.90718919032749*${LZ}
variable        A1  equal 4.90718919032749*13.8796270121836
variable        SFE0 equal (${pe1}-${pe0})/(2*${A1})
variable        SFE0 equal (-2504.78223643716-${pe0})/(2*${A1})
variable        SFE0 equal (-2504.78223643716--2512.0546194737)/(2*${A1})
variable        SFE0 equal (-2504.78223643716--2512.0546194737)/(2*68.1099556399648)
# units conversion: eV/Ang^2 to J/m^2
variable        SFE equal ${SFE0}*16.0217733
variable        SFE equal 0.0533870780578856*16.0217733
variable        dis equal ${n}*0.05+0.00000001
variable        dis equal 14*0.05+0.00000001

print           "${dis} ${SFE0} ${SFE}" append ./sfe_iron_112.csv
0.70000001 0.0533870780578856 0.855355661792847

next            n
jump            in.sfe_112 loopn
variable        n loop 100

reset_timestep  0

fix             freeze all setforce NULL 0.0  0.0
displace_atoms  upper move 0 0 0.05 units box
Displacing atoms ...

dump            dump_img all custom 5000 sfe_112.$n id type x y z c_eng c_csym
dump            dump_img all custom 5000 sfe_112.15 id type x y z c_eng c_csym
min_style       cg
minimize        1.0e-18 1.0e-9 10000 10000
Per MPI rank memory allocation (min/avg/max) = 6.99 | 6.991 | 6.992 Mbytes
Step PotEng Lx Ly Lz Pxx Pyy Pzz Pxy Pxz Pyz Press 
       0   -2504.1462    80.134064    4.9071892    13.879627    14144.087    5069.0081   -2986.9146 -9.7771905e-12 -4.2367825e-11    40.673642    5408.7268 
      10   -2504.1508    80.134064    4.9071892    13.879627    14054.931    5072.3255   -2858.5371 1.4991692e-11 -8.6951814e-11    74.932436    5422.9065 
      20   -2504.1508    80.134064    4.9071892    13.879627    14054.375    5072.4607   -2857.5826 6.3095469e-11 -1.1993354e-10     75.29331    5423.0844 
      30   -2504.1508    80.134064    4.9071892    13.879627    14054.369    5072.4697   -2857.5522 -4.1846375e-11 5.5143354e-11    75.308285    5423.0956 
      40   -2504.1508    80.134064    4.9071892    13.879627    14054.369    5072.4697    -2857.552 -6.5311632e-11 6.3877644e-12    75.308392    5423.0957 
      44   -2504.1508    80.134064    4.9071892    13.879627    14054.369    5072.4697    -2857.552 -1.0898308e-10 8.7082177e-11    75.308392    5423.0957 
Loop time of 1.21536 on 16 procs for 44 steps with 480 atoms

100.0% CPU use with 16 MPI tasks x no OpenMP threads

Minimization stats:
  Stopping criterion = force tolerance
  Energy initial, next-to-last, final = 
     -2504.14621772358  -2504.15077135139  -2504.15077135142
  Force two-norm initial, final = 0.30542222 8.6178012e-10
  Force max component initial, final = 0.043851514 8.0169704e-11
  Final line search alpha, max atom move = 1 8.0169704e-11
  Iterations, force evaluations = 44 88

MPI task timing breakdown:
Section |  min time  |  avg time  |  max time  |%varavg| %total
---------------------------------------------------------------
Pair    | 0.53954    | 0.88563    | 1.204      |  25.6 | 72.87
Neigh   | 0          | 0          | 0          |   0.0 |  0.00
Comm    | 0.0072053  | 0.28633    | 0.58014    |  37.5 | 23.56
Output  | 0.00018561 | 0.00025183 | 0.00091264 |   0.0 |  0.02
Modify  | 3.7221e-05 | 7.3039e-05 | 0.00011254 |   0.0 |  0.01
Other   |            | 0.04308    |            |       |  3.54

Nlocal:             30 ave          36 max          22 min
Histogram: 1 2 2 0 1 4 0 1 1 4
Nghost:         1029.5 ave        1139 max         938 min
Histogram: 6 2 0 0 0 0 2 2 0 4
Neighs:              0 ave           0 max           0 min
Histogram: 16 0 0 0 0 0 0 0 0 0
FullNghs:         5127 ave        6120 max        3788 min
Histogram: 1 2 2 0 1 4 0 1 1 4

Total # of neighbors = 82032
Ave neighs/atom = 170.9
Neighbor list builds = 0
Dangerous builds = 0
undump          dump_img
unfix           freeze

variable        tmp equal "pe"
variable        pe1 equal ${tmp}
variable        pe1 equal -2504.15077135142
variable        tmp equal "lx"
variable        LX equal ${tmp}
variable        LX equal 80.1340639173579
variable        tmp equal "ly"
variable        LY equal ${tmp}
variable        LY equal 4.90718919032749
variable        tmp equal "lz"
variable        LZ equal ${tmp}
variable        LZ equal 13.8796270121836
variable        A1  equal ${LY}*${LZ}
variable        A1  equal 4.90718919032749*${LZ}
variable        A1  equal 4.90718919032749*13.8796270121836
variable        SFE0 equal (${pe1}-${pe0})/(2*${A1})
variable        SFE0 equal (-2504.15077135142-${pe0})/(2*${A1})
variable        SFE0 equal (-2504.15077135142--2512.0546194737)/(2*${A1})
variable        SFE0 equal (-2504.15077135142--2512.0546194737)/(2*68.1099556399648)
# units conversion: eV/Ang^2 to J/m^2
variable        SFE equal ${SFE0}*16.0217733
variable        SFE equal 0.0580227078994156*16.0217733
variable        dis equal ${n}*0.05+0.00000001
variable        dis equal 15*0.05+0.00000001

print           "${dis} ${SFE0} ${SFE}" append ./sfe_iron_112.csv
0.75000001 0.0580227078994156 0.929626672216556

next            n
jump            in.sfe_112 loopn
variable        n loop 100

reset_timestep  0

fix             freeze all setforce NULL 0.0  0.0
displace_atoms  upper move 0 0 0.05 units box
Displacing atoms ...

dump            dump_img all custom 5000 sfe_112.$n id type x y z c_eng c_csym
dump            dump_img all custom 5000 sfe_112.16 id type x y z c_eng c_csym
min_style       cg
minimize        1.0e-18 1.0e-9 10000 10000
Per MPI rank memory allocation (min/avg/max) = 6.99 | 6.991 | 6.992 Mbytes
Step PotEng Lx Ly Lz Pxx Pyy Pzz Pxy Pxz Pyz Press 
       0   -2503.5569    80.134064    4.9071892    13.879627    14727.515    5589.0741   -3333.5265 -1.7976994e-10 2.7636858e-11    274.70167     5661.021 
      10   -2503.5604    80.134064    4.9071892    13.879627    14653.091    5598.9039   -3209.6988 2.1249094e-10 -3.0869849e-10    302.02216    5680.7654 
      20   -2503.5604    80.134064    4.9071892    13.879627    14652.698    5599.0453   -3208.9605 7.3654835e-11 4.7191239e-11    302.27502    5680.9276 
      30   -2503.5604    80.134064    4.9071892    13.879627    14652.696    5599.0543   -3208.9388 3.326852e-10 -2.0871043e-10    302.28698    5680.9373 
      40   -2503.5604    80.134064    4.9071892    13.879627    14652.696    5599.0543   -3208.9385 -2.0466919e-11 1.5513142e-11    302.28707    5680.9374 
      43   -2503.5604    80.134064    4.9071892    13.879627    14652.696    5599.0543   -3208.9385 5.2014653e-11 7.495846e-11    302.28707    5680.9374 
Loop time of 1.19463 on 16 procs for 43 steps with 480 atoms

100.0% CPU use with 16 MPI tasks x no OpenMP threads

Minimization stats:
  Stopping criterion = force tolerance
  Energy initial, next-to-last, final = 
      -2503.5569445367  -2503.56044693969  -2503.56044693968
  Force two-norm initial, final = 0.26926345 9.9010551e-10
  Force max component initial, final = 0.03868882 8.4217106e-11
  Final line search alpha, max atom move = 1 8.4217106e-11
  Iterations, force evaluations = 43 86

MPI task timing breakdown:
Section |  min time  |  avg time  |  max time  |%varavg| %total
---------------------------------------------------------------
Pair    | 0.53156    | 0.86903    | 1.178      |  25.2 | 72.75
Neigh   | 0          | 0          | 0          |   0.0 |  0.00
Comm    | 0.0093944  | 0.281      | 0.56903    |  37.2 | 23.52
Output  | 0.00020797 | 0.00026397 | 0.00090008 |   0.0 |  0.02
Modify  | 3.6112e-05 | 7.2407e-05 | 0.00010754 |   0.0 |  0.01
Other   |            | 0.04426    |            |       |  3.70

Nlocal:             30 ave          36 max          22 min
Histogram: 1 2 2 0 1 4 0 1 1 4
Nghost:         1029.5 ave        1139 max         938 min
Histogram: 6 2 0 0 0 0 2 2 0 4
Neighs:              0 ave           0 max           0 min
Histogram: 16 0 0 0 0 0 0 0 0 0
FullNghs:         5127 ave        6120 max        3786 min
Histogram: 1 2 2 0 1 4 0 1 1 4

Total # of neighbors = 82032
Ave neighs/atom = 170.9
Neighbor list builds = 0
Dangerous builds = 0
undump          dump_img
unfix           freeze

variable        tmp equal "pe"
variable        pe1 equal ${tmp}
variable        pe1 equal -2503.56044693968
variable        tmp equal "lx"
variable        LX equal ${tmp}
variable        LX equal 80.1340639173579
variable        tmp equal "ly"
variable        LY equal ${tmp}
variable        LY equal 4.90718919032749
variable        tmp equal "lz"
variable        LZ equal ${tmp}
variable        LZ equal 13.8796270121836
variable        A1  equal ${LY}*${LZ}
variable        A1  equal 4.90718919032749*${LZ}
variable        A1  equal 4.90718919032749*13.8796270121836
variable        SFE0 equal (${pe1}-${pe0})/(2*${A1})
variable        SFE0 equal (-2503.56044693968-${pe0})/(2*${A1})
variable        SFE0 equal (-2503.56044693968--2512.0546194737)/(2*${A1})
variable        SFE0 equal (-2503.56044693968--2512.0546194737)/(2*68.1099556399648)
# units conversion: eV/Ang^2 to J/m^2
variable        SFE equal ${SFE0}*16.0217733
variable        SFE equal 0.0623563211443047*16.0217733
variable        dis equal ${n}*0.05+0.00000001
variable        dis equal 16*0.05+0.00000001

print           "${dis} ${SFE0} ${SFE}" append ./sfe_iron_112.csv
0.80000001 0.0623563211443047 0.999058841196046

next            n
jump            in.sfe_112 loopn
variable        n loop 100

reset_timestep  0

fix             freeze all setforce NULL 0.0  0.0
displace_atoms  upper move 0 0 0.05 units box
Displacing atoms ...

dump            dump_img all custom 5000 sfe_112.$n id type x y z c_eng c_csym
dump            dump_img all custom 5000 sfe_112.17 id type x y z c_eng c_csym
min_style       cg
minimize        1.0e-18 1.0e-9 10000 10000
Per MPI rank memory allocation (min/avg/max) = 6.99 | 6.991 | 6.992 Mbytes
Step PotEng Lx Ly Lz Pxx Pyy Pzz Pxy Pxz Pyz Press 
       0   -2503.0184    80.134064    4.9071892    13.879627    15223.438    6092.9366   -3657.1763 -5.9966768e-12 -1.1862991e-11    523.08443    5886.3993 
      10    -2503.021    80.134064    4.9071892    13.879627    15162.297    6102.5935   -3540.8698 1.5539215e-10 -5.8923868e-11    543.36852     5908.007 
      20    -2503.021    80.134064    4.9071892    13.879627    15162.035     6102.703   -3540.3295 -4.2015847e-10 1.896775e-10    543.53415    5908.1361 
      30    -2503.021    80.134064    4.9071892    13.879627    15162.035    6102.7102   -3540.3162 1.2931964e-10 -9.3600304e-11    543.54274    5908.1431 
      40    -2503.021    80.134064    4.9071892    13.879627    15162.035    6102.7103    -3540.316 5.6316617e-11 -1.1810846e-10    543.54279    5908.1432 
Loop time of 1.10449 on 16 procs for 40 steps with 480 atoms

100.0% CPU use with 16 MPI tasks x no OpenMP threads

Minimization stats:
  Stopping criterion = force tolerance
  Energy initial, next-to-last, final = 
     -2503.01837289679  -2503.02103006314  -2503.02103006307
  Force two-norm initial, final = 0.23576645 8.2654973e-10
  Force max component initial, final = 0.033899732 9.3225039e-11
  Final line search alpha, max atom move = 1 9.3225039e-11
  Iterations, force evaluations = 40 80

MPI task timing breakdown:
Section |  min time  |  avg time  |  max time  |%varavg| %total
---------------------------------------------------------------
Pair    | 0.49425    | 0.80849    | 1.0929     |  24.3 | 73.20
Neigh   | 0          | 0          | 0          |   0.0 |  0.00
Comm    | 0.0068747  | 0.25833    | 0.52538    |  36.3 | 23.39
Output  | 0.00011652 | 0.00016441 | 0.00064257 |   0.0 |  0.01
Modify  | 3.1764e-05 | 7.0008e-05 | 0.00011394 |   0.0 |  0.01
Other   |            | 0.03744    |            |       |  3.39

Nlocal:             30 ave          36 max          22 min
Histogram: 1 2 2 0 1 4 0 1 1 4
Nghost:         1029.5 ave        1139 max         938 min
Histogram: 6 2 0 0 0 0 2 2 0 4
Neighs:              0 ave           0 max           0 min
Histogram: 16 0 0 0 0 0 0 0 0 0
FullNghs:         5121 ave        6120 max        3776 min
Histogram: 1 2 2 0 1 4 0 1 1 4

Total # of neighbors = 81936
Ave neighs/atom = 170.7
Neighbor list builds = 0
Dangerous builds = 0
undump          dump_img
unfix           freeze

variable        tmp equal "pe"
variable        pe1 equal ${tmp}
variable        pe1 equal -2503.02103006307
variable        tmp equal "lx"
[...]
Per MPI rank memory allocation (min/avg/max) = 6.99 | 6.991 | 6.992 Mbytes
Step PotEng Lx Ly Lz Pxx Pyy Pzz Pxy Pxz Pyz Press 
       0   -2504.9288    80.134064    4.9071892    13.879627    13420.262   0.26598835    6619.0165 5.3448641e-12 -1.0924381e-10     3333.355    6679.8481 
      10   -2504.9291    80.134064    4.9071892    13.879627    13422.878    32.797273    6613.7831 1.0494184e-10 2.3530438e-11    3318.5452    6689.8196 
      20   -2504.9291    80.134064    4.9071892    13.879627    13422.877    32.798372    6613.7827 -9.4643204e-11 1.9684744e-11    3318.5448    6689.8194 
      25   -2504.9291    80.134064    4.9071892    13.879627    13422.877    32.798471    6613.7827  -1.2945e-10 -7.1960122e-11    3318.5448    6689.8195 
Loop time of 0.660261 on 16 procs for 25 steps with 480 atoms

100.0% CPU use with 16 MPI tasks x no OpenMP threads

Minimization stats:
  Stopping criterion = energy tolerance
  Energy initial, next-to-last, final = 
     -2504.92884942549  -2504.92909164532  -2504.92909164532
  Force two-norm initial, final = 0.060432232 8.9341198e-09
  Force max component initial, final = 0.0086432033 6.7851412e-10
  Final line search alpha, max atom move = 1 6.7851412e-10
  Iterations, force evaluations = 25 50

MPI task timing breakdown:
Section |  min time  |  avg time  |  max time  |%varavg| %total
---------------------------------------------------------------
Pair    | 0.30836    | 0.49828    | 0.6439     |  17.9 | 75.47
Neigh   | 0          | 0          | 0          |   0.0 |  0.00
Comm    | 0.01203    | 0.1476     | 0.29571    |  30.1 | 22.35
Output  | 0.00010611 | 0.00015354 | 0.00061866 |   0.0 |  0.02
Modify  | 1.8691e-05 | 7.2915e-05 | 0.00014144 |   0.0 |  0.01
Other   |            | 0.01416    |            |       |  2.14

Nlocal:             30 ave          36 max          22 min
Histogram: 1 2 2 0 1 4 0 1 1 4
Nghost:        1026.25 ave        1132 max         937 min
Histogram: 6 2 0 0 0 0 0 4 0 4
Neighs:              0 ave           0 max           0 min
Histogram: 16 0 0 0 0 0 0 0 0 0
FullNghs:         5109 ave        6120 max        3762 min
Histogram: 1 2 2 0 1 4 0 1 1 4

Total # of neighbors = 81744
Ave neighs/atom = 170.3
Neighbor list builds = 0
Dangerous builds = 0
undump          dump_img
unfix           freeze

variable        tmp equal "pe"
variable        pe1 equal ${tmp}
variable        pe1 equal -2504.92909164532
variable        tmp equal "lx"
variable        LX equal ${tmp}
variable        LX equal 80.1340639173579
variable        tmp equal "ly"
variable        LY equal ${tmp}
variable        LY equal 4.90718919032749
variable        tmp equal "lz"
variable        LZ equal ${tmp}
variable        LZ equal 13.8796270121836
variable        A1  equal ${LY}*${LZ}
variable        A1  equal 4.90718919032749*${LZ}
variable        A1  equal 4.90718919032749*13.8796270121836
variable        SFE0 equal (${pe1}-${pe0})/(2*${A1})
variable        SFE0 equal (-2504.92909164532-${pe0})/(2*${A1})
variable        SFE0 equal (-2504.92909164532--2512.0546194737)/(2*${A1})
variable        SFE0 equal (-2504.92909164532--2512.0546194737)/(2*68.1099556399648)
# units conversion: eV/Ang^2 to J/m^2
variable        SFE equal ${SFE0}*16.0217733
variable        SFE equal 0.0523090035915301*16.0217733
variable        dis equal ${n}*0.05+0.00000001
variable        dis equal 96*0.05+0.00000001

print           "${dis} ${SFE0} ${SFE}" append ./sfe_iron_112.csv
4.80000001 0.0523090035915301 0.838082997092381

next            n
jump            in.sfe_112 loopn
variable        n loop 100

reset_timestep  0

fix             freeze all setforce NULL 0.0  0.0
displace_atoms  upper move 0 0 0.05 units box
Displacing atoms ...

dump            dump_img all custom 5000 sfe_112.$n id type x y z c_eng c_csym
dump            dump_img all custom 5000 sfe_112.97 id type x y z c_eng c_csym
min_style       cg
minimize        1.0e-18 1.0e-9 10000 10000
Per MPI rank memory allocation (min/avg/max) = 6.99 | 6.991 | 6.992 Mbytes
Step PotEng Lx Ly Lz Pxx Pyy Pzz Pxy Pxz Pyz Press 
       0    -2504.846    80.134064    4.9071892    13.879627      13700.6    500.64286    6337.6061 -1.242355e-10 -7.2416391e-11    3162.3902     6846.283 
      10   -2504.8464    80.134064    4.9071892    13.879627     13705.69    540.87337    6334.2046 1.0429003e-11 -8.4083838e-11    3143.7614    6860.2559 
      20   -2504.8464    80.134064    4.9071892    13.879627    13705.688    540.88023    6334.2042 8.2389125e-11 1.5643505e-10    3143.7592    6860.2575 
      30   -2504.8464    80.134064    4.9071892    13.879627    13705.688    540.88041    6334.2042 -1.2058535e-10 -1.1400204e-10    3143.7592    6860.2576 
      31   -2504.8464    80.134064    4.9071892    13.879627    13705.688    540.88041    6334.2042 1.1263323e-10 -2.0206194e-10    3143.7592    6860.2576 
Loop time of 0.820508 on 16 procs for 31 steps with 480 atoms

100.0% CPU use with 16 MPI tasks x no OpenMP threads

Minimization stats:
  Stopping criterion = force tolerance
  Energy initial, next-to-last, final = 
     -2504.84596817765  -2504.84637822147  -2504.84637822144
  Force two-norm initial, final = 0.074557994 9.8959591e-10
  Force max component initial, final = 0.010522267 8.7072266e-11
  Final line search alpha, max atom move = 1 8.7072266e-11
  Iterations, force evaluations = 31 62

MPI task timing breakdown:
Section |  min time  |  avg time  |  max time  |%varavg| %total
---------------------------------------------------------------
Pair    | 0.38394    | 0.6189     | 0.79849    |  19.9 | 75.43
Neigh   | 0          | 0          | 0          |   0.0 |  0.00
Comm    | 0.014771   | 0.18348    | 0.36902    |  33.6 | 22.36
Output  | 0.00015246 | 0.00023158 | 0.0010134  |   0.0 |  0.03
Modify  | 2.4613e-05 | 8.9299e-05 | 0.00016469 |   0.0 |  0.01
Other   |            | 0.0178     |            |       |  2.17

Nlocal:             30 ave          36 max          22 min
Histogram: 1 2 2 0 1 4 0 1 1 4
Nghost:        1026.25 ave        1132 max         937 min
Histogram: 6 2 0 0 0 0 0 4 0 4
Neighs:              0 ave           0 max           0 min
Histogram: 16 0 0 0 0 0 0 0 0 0
FullNghs:         5103 ave        6120 max        3754 min
Histogram: 1 2 2 0 1 4 0 1 1 4

Total # of neighbors = 81648
Ave neighs/atom = 170.1
Neighbor list builds = 0
Dangerous builds = 0
undump          dump_img
unfix           freeze

variable        tmp equal "pe"
variable        pe1 equal ${tmp}
variable        pe1 equal -2504.84637822144
variable        tmp equal "lx"
variable        LX equal ${tmp}
variable        LX equal 80.1340639173579
variable        tmp equal "ly"
variable        LY equal ${tmp}
variable        LY equal 4.90718919032749
variable        tmp equal "lz"
variable        LZ equal ${tmp}
variable        LZ equal 13.8796270121836
variable        A1  equal ${LY}*${LZ}
variable        A1  equal 4.90718919032749*${LZ}
variable        A1  equal 4.90718919032749*13.8796270121836
variable        SFE0 equal (${pe1}-${pe0})/(2*${A1})
variable        SFE0 equal (-2504.84637822144-${pe0})/(2*${A1})
variable        SFE0 equal (-2504.84637822144--2512.0546194737)/(2*${A1})
variable        SFE0 equal (-2504.84637822144--2512.0546194737)/(2*68.1099556399648)
# units conversion: eV/Ang^2 to J/m^2
variable        SFE equal ${SFE0}*16.0217733
variable        SFE equal 0.0529162086844058*16.0217733
variable        dis equal ${n}*0.05+0.00000001
variable        dis equal 97*0.05+0.00000001

print           "${dis} ${SFE0} ${SFE}" append ./sfe_iron_112.csv
4.85000001 0.0529162086844058 0.847811499437041

next            n
jump            in.sfe_112 loopn
variable        n loop 100

reset_timestep  0

fix             freeze all setforce NULL 0.0  0.0
displace_atoms  upper move 0 0 0.05 units box
Displacing atoms ...

dump            dump_img all custom 5000 sfe_112.$n id type x y z c_eng c_csym
dump            dump_img all custom 5000 sfe_112.98 id type x y z c_eng c_csym
min_style       cg
minimize        1.0e-18 1.0e-9 10000 10000
Per MPI rank memory allocation (min/avg/max) = 6.99 | 6.991 | 6.992 Mbytes
Step PotEng Lx Ly Lz Pxx Pyy Pzz Pxy Pxz Pyz Press 
       0   -2504.7259    80.134064    4.9071892    13.879627    14052.341    1030.6423    5995.7692 -1.2905891e-11 -1.200639e-10    2978.3897    7026.2507 
      10   -2504.7266    80.134064    4.9071892    13.879627    14059.432    1077.4207    5994.7793 1.8772206e-11 1.1237251e-10    2955.9045    7043.8773 
      20   -2504.7266    80.134064    4.9071892    13.879627     14059.43    1077.4356    5994.7798 2.1770544e-11 7.8087161e-11    2955.9001    7043.8817 
      30   -2504.7266    80.134064    4.9071892    13.879627     14059.43    1077.4359    5994.7799 -5.4752267e-11 4.9668128e-11    2955.9001    7043.8818 
      33   -2504.7266    80.134064    4.9071892    13.879627     14059.43    1077.4359    5994.7799 -1.1080816e-11 9.2818128e-11    2955.9001    7043.8818 
Loop time of 0.860451 on 16 procs for 33 steps with 480 atoms

100.0% CPU use with 16 MPI tasks x no OpenMP threads

Minimization stats:
  Stopping criterion = force tolerance
  Energy initial, next-to-last, final = 
     -2504.72591013978  -2504.72655120103  -2504.72655120098
  Force two-norm initial, final = 0.091176442 7.5792065e-10
  Force max component initial, final = 0.012737076 6.2871819e-11
  Final line search alpha, max atom move = 1 6.2871819e-11
  Iterations, force evaluations = 33 66

MPI task timing breakdown:
Section |  min time  |  avg time  |  max time  |%varavg| %total
---------------------------------------------------------------
Pair    | 0.40887    | 0.65422    | 0.83983    |  20.1 | 76.03
Neigh   | 0          | 0          | 0          |   0.0 |  0.00
Comm    | 0.013511   | 0.18793    | 0.38139    |  34.5 | 21.84
Output  | 0.0001519  | 0.00022279 | 0.00092474 |   0.0 |  0.03
Modify  | 2.6226e-05 | 9.7112e-05 | 0.00019079 |   0.0 |  0.01
Other   |            | 0.01798    |            |       |  2.09

Nlocal:             30 ave          36 max          22 min
Histogram: 1 2 2 0 1 4 0 1 1 4
Nghost:        1026.25 ave        1132 max         937 min
Histogram: 6 2 0 0 0 0 0 4 0 4
Neighs:              0 ave           0 max           0 min
Histogram: 16 0 0 0 0 0 0 0 0 0
FullNghs:         5103 ave        6120 max        3754 min
Histogram: 1 2 2 0 1 4 0 1 1 4

Total # of neighbors = 81648
Ave neighs/atom = 170.1
Neighbor list builds = 0
Dangerous builds = 0
undump          dump_img
unfix           freeze

variable        tmp equal "pe"
variable        pe1 equal ${tmp}
variable        pe1 equal -2504.72655120098
variable        tmp equal "lx"
variable        LX equal ${tmp}
variable        LX equal 80.1340639173579
variable        tmp equal "ly"
variable        LY equal ${tmp}
variable        LY equal 4.90718919032749
variable        tmp equal "lz"
variable        LZ equal ${tmp}
variable        LZ equal 13.8796270121836
variable        A1  equal ${LY}*${LZ}
variable        A1  equal 4.90718919032749*${LZ}
variable        A1  equal 4.90718919032749*13.8796270121836
variable        SFE0 equal (${pe1}-${pe0})/(2*${A1})
variable        SFE0 equal (-2504.72655120098-${pe0})/(2*${A1})
variable        SFE0 equal (-2504.72655120098--2512.0546194737)/(2*${A1})
variable        SFE0 equal (-2504.72655120098--2512.0546194737)/(2*68.1099556399648)
# units conversion: eV/Ang^2 to J/m^2
variable        SFE equal ${SFE0}*16.0217733
variable        SFE equal 0.0537958673138534*16.0217733
variable        dis equal ${n}*0.05+0.00000001
variable        dis equal 98*0.05+0.00000001

print           "${dis} ${SFE0} ${SFE}" append ./sfe_iron_112.csv
4.90000001 0.0537958673138534 0.861905190579439

next            n
jump            in.sfe_112 loopn
variable        n loop 100

reset_timestep  0

fix             freeze all setforce NULL 0.0  0.0
displace_atoms  upper move 0 0 0.05 units box
Displacing atoms ...

dump            dump_img all custom 5000 sfe_112.$n id type x y z c_eng c_csym
dump            dump_img all custom 5000 sfe_112.99 id type x y z c_eng c_csym
min_style       cg
minimize        1.0e-18 1.0e-9 10000 10000
Per MPI rank memory allocation (min/avg/max) = 6.99 | 6.991 | 6.992 Mbytes
Step PotEng Lx Ly Lz Pxx Pyy Pzz Pxy Pxz Pyz Press 
       0   -2504.5742    80.134064    4.9071892    13.879627    14464.127    1587.9615    5609.9069 -3.5067523e-11 1.3205725e-10    2786.9219    7220.6651 
      10   -2504.5751    80.134064    4.9071892    13.879627    14472.394    1638.3508    5613.4581 4.7060877e-11 4.771269e-11    2761.5082    7241.4008 
      20   -2504.5751    80.134064    4.9071892    13.879627    14472.389    1638.3738    5613.4612 9.9727343e-11 6.8440333e-11    2761.5017    7241.4081 
      30   -2504.5751    80.134064    4.9071892    13.879627     14472.39    1638.3743    5613.4614 8.981979e-11 8.8516165e-11    2761.5018    7241.4084 
      34   -2504.5751    80.134064    4.9071892    13.879627     14472.39    1638.3743    5613.4614 -1.2123716e-11 2.6072508e-12    2761.5018    7241.4084 
Loop time of 0.885122 on 16 procs for 34 steps with 480 atoms

100.0% CPU use with 16 MPI tasks x no OpenMP threads

Minimization stats:
  Stopping criterion = force tolerance
  Energy initial, next-to-last, final = 
     -2504.57420921929  -2504.57509388559  -2504.57509388565
  Force two-norm initial, final = 0.10610052 6.5291707e-10
  Force max component initial, final = 0.0147219 5.6805921e-11
  Final line search alpha, max atom move = 1 5.6805921e-11
  Iterations, force evaluations = 34 68

MPI task timing breakdown:
Section |  min time  |  avg time  |  max time  |%varavg| %total
---------------------------------------------------------------
Pair    | 0.41991    | 0.67441    | 0.86515    |  20.5 | 76.19
Neigh   | 0          | 0          | 0          |   0.0 |  0.00
Comm    | 0.012156   | 0.1928     | 0.39749    |  35.6 | 21.78
Output  | 0.0001547  | 0.00022955 | 0.00096572 |   0.0 |  0.03
Modify  | 2.7578e-05 | 9.4999e-05 | 0.00017537 |   0.0 |  0.01
Other   |            | 0.01759    |            |       |  1.99

Nlocal:             30 ave          36 max          22 min
Histogram: 1 2 2 0 1 4 0 1 1 4
Nghost:        1026.25 ave        1132 max         937 min
Histogram: 6 2 0 0 0 0 0 4 0 4
Neighs:              0 ave           0 max           0 min
Histogram: 16 0 0 0 0 0 0 0 0 0
FullNghs:         5103 ave        6120 max        3746 min
Histogram: 1 2 2 0 1 4 0 1 1 4

Total # of neighbors = 81648
Ave neighs/atom = 170.1
Neighbor list builds = 0
Dangerous builds = 0
undump          dump_img
unfix           freeze

variable        tmp equal "pe"
variable        pe1 equal ${tmp}
variable        pe1 equal -2504.57509388565
variable        tmp equal "lx"
variable        LX equal ${tmp}
variable        LX equal 80.1340639173579
variable        tmp equal "ly"
variable        LY equal ${tmp}
variable        LY equal 4.90718919032749
variable        tmp equal "lz"
variable        LZ equal ${tmp}
variable        LZ equal 13.8796270121836
variable        A1  equal ${LY}*${LZ}
variable        A1  equal 4.90718919032749*${LZ}
variable        A1  equal 4.90718919032749*13.8796270121836
variable        SFE0 equal (${pe1}-${pe0})/(2*${A1})
variable        SFE0 equal (-2504.57509388565-${pe0})/(2*${A1})
variable        SFE0 equal (-2504.57509388565--2512.0546194737)/(2*${A1})
variable        SFE0 equal (-2504.57509388565--2512.0546194737)/(2*68.1099556399648)
# units conversion: eV/Ang^2 to J/m^2
variable        SFE equal ${SFE0}*16.0217733
variable        SFE equal 0.0549077261743301*16.0217733
variable        dis equal ${n}*0.05+0.00000001
variable        dis equal 99*0.05+0.00000001

print           "${dis} ${SFE0} ${SFE}" append ./sfe_iron_112.csv
4.95000001 0.0549077261743301 0.879719141183593

next            n
jump            in.sfe_112 loopn
variable        n loop 100

reset_timestep  0

fix             freeze all setforce NULL 0.0  0.0
displace_atoms  upper move 0 0 0.05 units box
Displacing atoms ...

dump            dump_img all custom 5000 sfe_112.$n id type x y z c_eng c_csym
dump            dump_img all custom 5000 sfe_112.100 id type x y z c_eng c_csym
min_style       cg
minimize        1.0e-18 1.0e-9 10000 10000
Per MPI rank memory allocation (min/avg/max) = 6.99 | 6.991 | 6.992 Mbytes
Step PotEng Lx Ly Lz Pxx Pyy Pzz Pxy Pxz Pyz Press 
       0   -2504.3957    80.134064    4.9071892    13.879627    14921.395     2160.044    5189.2435 -1.5643505e-11 7.5349548e-11    2602.5386    7423.5607 
      10   -2504.3968    80.134064    4.9071892    13.879627    14929.178    2209.2153    5197.5605 -5.853278e-11 -5.5729986e-11    2577.0477    7445.3181 
      20   -2504.3968    80.134064    4.9071892    13.879627    14929.171    2209.2443    5197.5672 2.3204532e-11 4.771269e-11    2577.0405    7445.3273 
      30   -2504.3968    80.134064    4.9071892    13.879627    14929.171    2209.2449    5197.5674 8.9037615e-11 6.0748944e-11    2577.0407    7445.3277 
      35   -2504.3968    80.134064    4.9071892    13.879627    14929.171    2209.2449    5197.5674 5.1884291e-11 -4.7843052e-11    2577.0407    7445.3277 
Loop time of 0.915487 on 16 procs for 35 steps with 480 atoms

100.0% CPU use with 16 MPI tasks x no OpenMP threads

Minimization stats:
  Stopping criterion = force tolerance
  Energy initial, next-to-last, final = 
     -2504.39571990695  -2504.39682629027  -2504.39682629025
  Force two-norm initial, final = 0.11852888 4.4573194e-10
  Force max component initial, final = 0.016380303 3.3047787e-11
  Final line search alpha, max atom move = 1 3.3047787e-11
  Iterations, force evaluations = 35 70

MPI task timing breakdown:
Section |  min time  |  avg time  |  max time  |%varavg| %total
---------------------------------------------------------------
Pair    | 0.43017    | 0.69299    | 0.8959     |  21.0 | 75.70
Neigh   | 0          | 0          | 0          |   0.0 |  0.00
Comm    | 0.013795   | 0.20278    | 0.40741    |  35.5 | 22.15
Output  | 0.00014952 | 0.00022034 | 0.00090885 |   0.0 |  0.02
Modify  | 2.8901e-05 | 9.7189e-05 | 0.00017314 |   0.0 |  0.01
Other   |            | 0.0194     |            |       |  2.12

Nlocal:             30 ave          36 max          22 min
Histogram: 1 2 2 0 1 4 0 1 1 4
Nghost:        1026.25 ave        1132 max         937 min
Histogram: 6 2 0 0 0 0 0 4 0 4
Neighs:              0 ave           0 max           0 min
Histogram: 16 0 0 0 0 0 0 0 0 0
FullNghs:         5103 ave        6120 max        3746 min
Histogram: 1 2 2 0 1 4 0 1 1 4

Total # of neighbors = 81648
Ave neighs/atom = 170.1
Neighbor list builds = 0
Dangerous builds = 0
undump          dump_img
unfix           freeze

variable        tmp equal "pe"
variable        pe1 equal ${tmp}
variable        pe1 equal -2504.39682629025
variable        tmp equal "lx"
variable        LX equal ${tmp}
variable        LX equal 80.1340639173579
variable        tmp equal "ly"
variable        LY equal ${tmp}
variable        LY equal 4.90718919032749
variable        tmp equal "lz"
variable        LZ equal ${tmp}
variable        LZ equal 13.8796270121836
variable        A1  equal ${LY}*${LZ}
variable        A1  equal 4.90718919032749*${LZ}
variable        A1  equal 4.90718919032749*13.8796270121836
variable        SFE0 equal (${pe1}-${pe0})/(2*${A1})
variable        SFE0 equal (-2504.39682629025-${pe0})/(2*${A1})
variable        SFE0 equal (-2504.39682629025--2512.0546194737)/(2*${A1})
variable        SFE0 equal (-2504.39682629025--2512.0546194737)/(2*68.1099556399648)
# units conversion: eV/Ang^2 to J/m^2
variable        SFE equal ${SFE0}*16.0217733
variable        SFE equal 0.0562164011963956*16.0217733
variable        dis equal ${n}*0.05+0.00000001
variable        dis equal 100*0.05+0.00000001

print           "${dis} ${SFE0} ${SFE}" append ./sfe_iron_112.csv
5.00000001 0.0562164011963956 0.900686435710499

next            n
jump            in.sfe_112 loopn

shell           cp sfe_iron_112.csv ../PLOT_DATA/sfe_iron_112_lei.csv
shell           touch ../flag_sfe_112
Total wall time: 0:01:29
