LAMMPS (3 Aug 2022)
#-----bcc iron
#-----calculate the energy volume curve
# lei.zhang@rug.nl

#------------------------------------

shell           rm volume.dat
WARNING: Shell command 'rm volume.dat' failed with error 'No such file or directory' (../input.cpp:1262)
label           loop_start

variable        i loop 1 30
variable        latparam equal 2.834-0.05+(0.1/30)*${i}
variable        latparam equal 2.834-0.05+(0.1/30)*1

clear
units           metal
dimension       3
boundary        p p p
atom_style      atomic
atom_modify     map yes

#-------Define geometry  (2d X 2d) -------------------------------------------------
lattice         bcc ${latparam} orient x 1 0 0 orient y 0 1 0 orient z 0 0 1
lattice         bcc 2.78733333333333 orient x 1 0 0 orient y 0 1 0 orient z 0 0 1
Lattice spacing in x,y,z = 2.7873333 2.7873333 2.7873333
region          box block 0 1 0 1 0 1 units lattice
create_box      1 box
Created orthogonal box = (0 0 0) to (2.7873333 2.7873333 2.7873333)
  1 by 2 by 2 MPI processor grid
create_atoms    1 box
Created 2 atoms
  using lattice units in orthogonal box = (0 0 0) to (2.7873333 2.7873333 2.7873333)
  create_atoms CPU = 0.000 seconds

#-------Define interatomic potential-----------------------------------
include         ../potential.in
#pair_style      aenet
#pair_coeff      * * v-1 Fe 15tw-15tw.nn Fe
#----------------------NEUip
#pair_style  pace
#pair_coeff * * /scratch-shared/zhanglei1/ace_julia_training_slovers/N4.D14_rrqr/Fe_ace_N4_D14_R5.yace Fe
#pair_coeff  * * /data/lei/train_ace_2021_12_08/training_ace_iron_2022_08_12_v2/interim_potential_0.yace Fe
#pair_coeff  * * /data/lei/train_ace_2021_12_08/training_ace_iron_2022_08_12_v3_iter2000/interim_potential_0.yace Fe
#pair_coeff  * * /data/lei/train_ace_2021_12_08/training_ace_iron_2022_08_16/interim_potential_0.yace Fe
#pair_coeff  * * /data/lei/ace_iron/ace_Cas_suggested/Fe_ace_N3_D10_R5.yace Fe
#pair_coeff  * * /data/lei/ace_iron/ace_Cas_suggested_updated_1/Fe_ace_N3_D10_R5.yace Fe
#pair_coeff  * * /data/lei/ace_iron/ace_tuning_weights/Fe_ace_N3_D10_R5.yace Fe
#pair_coeff  * * /data/lei/ace_iron/ace_tuning_weights/Fe_ace_N3_D16_R5.yace Fe
#pair_coeff  * * /data/lei/ace_iron/ace_tuning_weights/Fe_ace_N4_D12_R5.yace Fe
#pair_coeff  * * /home/lei/ACEproject/ace_models/Fe_ace_N4_D18_R5.yace Fe
#pair_coeff  * * /home/lei/ACEproject/ace_models/Fe_ace_N3_D18_R5.yace Fe
#pair_coeff  * * /data/lei/train_ace_2021_12_08/training_ace_iron_2022_08_12_v3_iter2000/output_potential.yace Fe
# Addition
#newton  off

#pair_style	allegro
#pair_coeff	* * /home/zhanglei1/automatic_workflow_IAP_v1_2021_12_01/allegro-single-deployed_2022_09_22/allegro-single-deployed.pth Fe

# ---------------------GAP--------------------
pair_style      quip
pair_coeff      * * /scratch-shared/zhanglei1/GAP_training_OgataDBs/M4700_l8n8_R6.5_noIso/gap_Fe_test.xml "Potential xml_label=GAP_2022_10_11_120_15_58_18_226" 26
#pair_coeff      * * /scratch-shared/zhanglei1/GAP_training/M3000_l6n6/gap_Fe_test.xml "Potential xml_label=GAP_2022_10_3_120_16_55_34_368" 26
#pair_coeff      * * /home/lei/gap_training/l_6_n_12_allNewData/gap_Fe_test.xml "Potential xml_label=GAP_2021_12_1_60_0_17_25_709" 26
#pair_coeff      * * /home/lei/gap_training_2021_12_13/l_6_n_12_allNewData_turboSOAP/gap_Fe_test.xml "Potential xml_label=GAP_2021_12_12_60_17_6_15_829" 26 # TurboSOAP descriptor
#pair_coeff      * * /home/lei/gap_training_2021_12_13/l_6_n_12_allNewData_doubleSOAP/gap_Fe_test.xml "Potential xml_label=GAP_2021_12_14_60_8_16_28_553" 26
#pair_coeff      * * /home/lei/gap_training_2021_12_13/l_6_n_12_newdata_2021_12_16/gap_Fe_test.xml "Potential xml_label=GAP_2021_12_17_60_2_59_46_132" 26
#pair_coeff      * * /home/lei/gap_training_2021_12_13/l_6_n_12_newdata_doubleSOAP_2021_12_17/gap_Fe_test.xml   "Potential xml_label=GAP_2021_12_17_60_21_56_31_840" 26
#pair_coeff      * * /data/lei/gap_training_2021_12_13/l_6_n_12_newdata_doubleSOAP_2021_12_21/gap_Fe_test.xml   "Potential xml_label=GAP_2021_12_21_60_14_55_52_923" 26
#pair_coeff      * * /home/lei/gap_training_2021_12_13/l_6_n_12_newdata_doubleSOAP_Rcut6_2021_12_21/gap_Fe_test.xml   "Potential xml_label=GAP_2021_12_21_60_22_39_47_189" 26
#pair_coeff      * * /data/lei/gap_training_addCracks_2022_01_25/doubSOAP_R5_2022_01_25/gap_Fe_test.xml   "Potential xml_label=GAP_2022_1_26_60_7_10_9_751" 26

#pair_coeff      * * /home/p301616/gap_trainedOn_nieuwpoort/doubSOAP_R5_2022_01_28/gap_Fe_test.xml   "Potential xml_label=GAP_2022_1_29_60_3_44_50_986" 26

#pair_coeff      * * /home/lei/gap_training_addCracks_2022_01_25/doubSOAP_R5_2022_02_10_iter3/gap_Fe_test.xml   "Potential xml_label=GAP_2022_2_11_60_3_6_24_998" 26
#pair_coeff      * * /home/lei/gap_training_addCracks/doubSOAP_R5_2022_02_23_iter8/gap_Fe_test.xml   "Potential xml_label=GAP_2022_2_23_60_14_2_51_919" 26
#pair_coeff      * * /home/lei/gap_training_addCracks/turboSOAP_iter10/gap_Fe_test.xml   "Potential xml_label=GAP_2022_3_8_60_9_8_45_147" 26
#pair_coeff      * * /home/lei/gap_training_addCracks/turboSOAP_iter11/gap_Fe_test.xml   "Potential xml_label=GAP_2022_3_8_60_14_22_10_147" 26
#pair_coeff      * * /home/lei/gap_training_addCracks/doubSOAP_R5_2022_03_08_iter11/gap_Fe_test.xml   "Potential xml_label=GAP_2022_3_8_60_13_19_13_884" 26
#pair_coeff      * * /home/lei/gap_training_addCracks/turboSOAP_iter11_2/gap_Fe_test.xml   "Potential xml_label=GAP_2022_3_9_60_20_54_41_133" 26
#pair_coeff      * * /home/lei/gap_training_addCracks/turboSOAP_iter11/gap_Fe_test.xml   "Potential xml_label=GAP_2022_3_10_60_5_9_4_798" 26
#pair_coeff      * * /home/lei/gap_training_addCracks/turboSOAP_iter11_basis10/gap_Fe_test.xml   "Potential xml_label=GAP_2022_3_10_60_10_51_48_731" 26
#pair_coeff      * * /home/lei/gap_training_addCracks/doubleturboSOAP_iter11/gap_Fe_test.xml   "Potential xml_label=GAP_2022_3_9_60_23_12_29_37" 26
#pair_coeff      * * /home/lei/gap_training_addCracks/turboSOAP_iter11_compressfile/gap_Fe_test.xml   "Potential xml_label=GAP_2022_3_10_60_11_56_19_400" 26
#pair_coeff      * * /home/lei/gap_snellius/doubleturboSOAP_iter11_basis8/gap_Fe_test.xml   "Potential xml_label=GAP_2022_3_10_60_18_34_37_91" 26
#pair_coeff      * * /home/lei/gap_snellius/doubleturboSOAP_iter0_basis8/gap_Fe_test.xml "Potential xml_label=GAP_2022_3_11_60_22_7_9_623" 26
#pair_coeff      * * /home/lei/gap_snellius/doubleturboSOAP_iter0_hcp_basis8/gap_Fe_test.xml "Potential xml_label=GAP_2022_3_28_120_15_22_12_14" 26
#pair_coeff      * * /home/lei/gap_snellius/final/gap_Fe_test.xml "Potential xml_label=GAP_2022_5_28_120_3_13_35_983" 26
#---------------------------------------------

#---------------------ADP---------------------
# pair_style adp
# pair_coeff * * /home/lei/crackTip_ADP/Fe_nmFe.2021.adp.alloy Fe
#---------------------------------------------
neighbor        2.0 bin
neigh_modify    every 1 delay 0 check yes

#-------Define atom mass (no needed for moelcular statics) ------------
mass            1 55.845

#-------Compute--------------------------------------------------------
compute 	eng all pe/atom
compute 	new all temp
compute 	csym all centro/atom bcc
compute 	poten all pe
compute 	stress all stress/atom NULL

#------Relaxation ------------------------------------------------------
thermo          100
thermo_style    custom step pe lx ly lz pxx pyy pzz pxy pxz pyz press

min_style       cg
minimize        1e-30 10e-12 100000000 1000000000
Neighbor list info ...
  update every 1 steps, delay 0 steps, check yes
  max neighbors/atom: 2000, page size: 100000
  master list distance cutoff = 8.5
  ghost atom cutoff = 8.5
  binsize = 4.25, bins = 1 1 1
  2 neighbor lists, perpetual/occasional/extra = 1 1 0
  (1) pair quip, perpetual
      attributes: full, newton on
      pair build: full/bin/atomonly
      stencil: full/bin/3d
      bin: standard
  (2) compute centro/atom, occasional, copy from (1)
      attributes: full, newton on
      pair build: copy
      stencil: none
      bin: none
WARNING: Proc sub-domain size < neighbor skin, could lead to lost atoms (../domain.cpp:970)
Per MPI rank memory allocation (min/avg/max) = 5.076 | 5.077 | 5.079 Mbytes
   Step         PotEng           Lx             Ly             Lz            Pxx            Pyy            Pzz            Pxy            Pxz            Pyz           Press     
         0   1.9281202      2.7873333      2.7873333      2.7873333      488292.26      488292.26      488292.26      4.9214721e-08  4.9205359e-08  4.920876e-08   488292.26    
         1   1.9281202      2.7873333      2.7873333      2.7873333      488292.26      488292.26      488292.26      4.9214721e-08  4.9205359e-08  4.920876e-08   488292.26    
Loop time of 0.0192133 on 4 procs for 1 steps with 2 atoms

95.5% CPU use with 4 MPI tasks x no OpenMP threads

Minimization stats:
  Stopping criterion = energy tolerance
  Energy initial, next-to-last, final = 
      1.92812021121399   1.92812021121399   1.92812021121399
  Force two-norm initial, final = 2.1175277e-14 2.1175277e-14
  Force max component initial, final = 8.9928065e-15 8.9928065e-15
  Final line search alpha, max atom move = 1 8.9928065e-15
  Iterations, force evaluations = 1 2

MPI task timing breakdown:
Section |  min time  |  avg time  |  max time  |%varavg| %total
---------------------------------------------------------------
Pair    | 3.0758e-05 | 0.0090887  | 0.018318   |   9.5 | 47.30
Neigh   | 0          | 0          | 0          |   0.0 |  0.00
Comm    | 0.00078474 | 0.010012   | 0.019069   |   9.1 | 52.11
Output  | 0          | 0          | 0          |   0.0 |  0.00
Modify  | 0          | 0          | 0          |   0.0 |  0.00
Other   |            | 0.000113   |            |       |  0.59

Nlocal:            0.5 ave           1 max           0 min
Histogram: 2 0 0 0 0 0 0 0 0 2
Nghost:          734.5 ave         735 max         734 min
Histogram: 2 0 0 0 0 0 0 0 0 2
Neighs:              0 ave           0 max           0 min
Histogram: 4 0 0 0 0 0 0 0 0 0
FullNghs:          129 ave         258 max           0 min
Histogram: 2 0 0 0 0 0 0 0 0 2

Total # of neighbors = 516
Ave neighs/atom = 258
Neighbor list builds = 0
Dangerous builds = 0
#-----Calculate the lattice parameter-----------------------------------
variable        tmp equal "lx"
variable        LX equal ${tmp}
variable        LX equal 2.78733333333333
variable        tmp equal "ly"
variable        LY equal ${tmp}
variable        LY equal 2.78733333333333
variable        tmp equal "lz"
variable        LZ equal ${tmp}
variable        LZ equal 2.78733333333333
variable        tmp equal "atoms"
variable        N equal ${tmp}
variable        N equal 2
variable        V equal (${LX}*${LY}*${LZ})
variable        V equal (2.78733333333333*${LY}*${LZ})
variable        V equal (2.78733333333333*2.78733333333333*${LZ})
variable        V equal (2.78733333333333*2.78733333333333*2.78733333333333)
variable        tmp equal "pe"
variable        pe0 equal ${tmp}
variable        pe0 equal 1.92812021121399

variable        teng equal ${pe0}/${N}
variable        teng equal 1.92812021121399/${N}
variable        teng equal 1.92812021121399/2
variable        vol  equal ${V}/${N}
variable        vol  equal 21.655425701037/${N}
variable        vol  equal 21.655425701037/2
#-----compute
print           "${vol} ${teng}" append ./volume.dat
10.8277128505185 0.964060105606995

#-----jump to next loop
next            i
jump            in.eos loop_start

variable        i loop 1 30
variable        latparam equal 2.834-0.05+(0.1/30)*${i}
variable        latparam equal 2.834-0.05+(0.1/30)*2

clear
units           metal
dimension       3
boundary        p p p
atom_style      atomic
atom_modify     map yes

#-------Define geometry  (2d X 2d) -------------------------------------------------
lattice         bcc ${latparam} orient x 1 0 0 orient y 0 1 0 orient z 0 0 1
lattice         bcc 2.79066666666667 orient x 1 0 0 orient y 0 1 0 orient z 0 0 1
Lattice spacing in x,y,z = 2.7906667 2.7906667 2.7906667
region          box block 0 1 0 1 0 1 units lattice
create_box      1 box
Created orthogonal box = (0 0 0) to (2.7906667 2.7906667 2.7906667)
  1 by 2 by 2 MPI processor grid
create_atoms    1 box
Created 2 atoms
  using lattice units in orthogonal box = (0 0 0) to (2.7906667 2.7906667 2.7906667)
  create_atoms CPU = 0.000 seconds

#-------Define interatomic potential-----------------------------------
include         ../potential.in
#pair_style      aenet
#pair_coeff      * * v-1 Fe 15tw-15tw.nn Fe
#----------------------NEUip
#pair_style  pace
#pair_coeff * * /scratch-shared/zhanglei1/ace_julia_training_slovers/N4.D14_rrqr/Fe_ace_N4_D14_R5.yace Fe
#pair_coeff  * * /data/lei/train_ace_2021_12_08/training_ace_iron_2022_08_12_v2/interim_potential_0.yace Fe
#pair_coeff  * * /data/lei/train_ace_2021_12_08/training_ace_iron_2022_08_12_v3_iter2000/interim_potential_0.yace Fe
#pair_coeff  * * /data/lei/train_ace_2021_12_08/training_ace_iron_2022_08_16/interim_potential_0.yace Fe
#pair_coeff  * * /data/lei/ace_iron/ace_Cas_suggested/Fe_ace_N3_D10_R5.yace Fe
#pair_coeff  * * /data/lei/ace_iron/ace_Cas_suggested_updated_1/Fe_ace_N3_D10_R5.yace Fe
#pair_coeff  * * /data/lei/ace_iron/ace_tuning_weights/Fe_ace_N3_D10_R5.yace Fe
#pair_coeff  * * /data/lei/ace_iron/ace_tuning_weights/Fe_ace_N3_D16_R5.yace Fe
#pair_coeff  * * /data/lei/ace_iron/ace_tuning_weights/Fe_ace_N4_D12_R5.yace Fe
#pair_coeff  * * /home/lei/ACEproject/ace_models/Fe_ace_N4_D18_R5.yace Fe
#pair_coeff  * * /home/lei/ACEproject/ace_models/Fe_ace_N3_D18_R5.yace Fe
#pair_coeff  * * /data/lei/train_ace_2021_12_08/training_ace_iron_2022_08_12_v3_iter2000/output_potential.yace Fe
# Addition
#newton  off

#pair_style	allegro
#pair_coeff	* * /home/zhanglei1/automatic_workflow_IAP_v1_2021_12_01/allegro-single-deployed_2022_09_22/allegro-single-deployed.pth Fe

# ---------------------GAP--------------------
pair_style      quip
pair_coeff      * * /scratch-shared/zhanglei1/GAP_training_OgataDBs/M4700_l8n8_R6.5_noIso/gap_Fe_test.xml "Potential xml_label=GAP_2022_10_11_120_15_58_18_226" 26
#pair_coeff      * * /scratch-shared/zhanglei1/GAP_training/M3000_l6n6/gap_Fe_test.xml "Potential xml_label=GAP_2022_10_3_120_16_55_34_368" 26
#pair_coeff      * * /home/lei/gap_training/l_6_n_12_allNewData/gap_Fe_test.xml "Potential xml_label=GAP_2021_12_1_60_0_17_25_709" 26
#pair_coeff      * * /home/lei/gap_training_2021_12_13/l_6_n_12_allNewData_turboSOAP/gap_Fe_test.xml "Potential xml_label=GAP_2021_12_12_60_17_6_15_829" 26 # TurboSOAP descriptor
#pair_coeff      * * /home/lei/gap_training_2021_12_13/l_6_n_12_allNewData_doubleSOAP/gap_Fe_test.xml "Potential xml_label=GAP_2021_12_14_60_8_16_28_553" 26
#pair_coeff      * * /home/lei/gap_training_2021_12_13/l_6_n_12_newdata_2021_12_16/gap_Fe_test.xml "Potential xml_label=GAP_2021_12_17_60_2_59_46_132" 26
#pair_coeff      * * /home/lei/gap_training_2021_12_13/l_6_n_12_newdata_doubleSOAP_2021_12_17/gap_Fe_test.xml   "Potential xml_label=GAP_2021_12_17_60_21_56_31_840" 26
#pair_coeff      * * /data/lei/gap_training_2021_12_13/l_6_n_12_newdata_doubleSOAP_2021_12_21/gap_Fe_test.xml   "Potential xml_label=GAP_2021_12_21_60_14_55_52_923" 26
#pair_coeff      * * /home/lei/gap_training_2021_12_13/l_6_n_12_newdata_doubleSOAP_Rcut6_2021_12_21/gap_Fe_test.xml   "Potential xml_label=GAP_2021_12_21_60_22_39_47_189" 26
#pair_coeff      * * /data/lei/gap_training_addCracks_2022_01_25/doubSOAP_R5_2022_01_25/gap_Fe_test.xml   "Potential xml_label=GAP_2022_1_26_60_7_10_9_751" 26

#pair_coeff      * * /home/p301616/gap_trainedOn_nieuwpoort/doubSOAP_R5_2022_01_28/gap_Fe_test.xml   "Potential xml_label=GAP_2022_1_29_60_3_44_50_986" 26

#pair_coeff      * * /home/lei/gap_training_addCracks_2022_01_25/doubSOAP_R5_2022_02_10_iter3/gap_Fe_test.xml   "Potential xml_label=GAP_2022_2_11_60_3_6_24_998" 26
#pair_coeff      * * /home/lei/gap_training_addCracks/doubSOAP_R5_2022_02_23_iter8/gap_Fe_test.xml   "Potential xml_label=GAP_2022_2_23_60_14_2_51_919" 26
#pair_coeff      * * /home/lei/gap_training_addCracks/turboSOAP_iter10/gap_Fe_test.xml   "Potential xml_label=GAP_2022_3_8_60_9_8_45_147" 26
#pair_coeff      * * /home/lei/gap_training_addCracks/turboSOAP_iter11/gap_Fe_test.xml   "Potential xml_label=GAP_2022_3_8_60_14_22_10_147" 26
#pair_coeff      * * /home/lei/gap_training_addCracks/doubSOAP_R5_2022_03_08_iter11/gap_Fe_test.xml   "Potential xml_label=GAP_2022_3_8_60_13_19_13_884" 26
#pair_coeff      * * /home/lei/gap_training_addCracks/turboSOAP_iter11_2/gap_Fe_test.xml   "Potential xml_label=GAP_2022_3_9_60_20_54_41_133" 26
#pair_coeff      * * /home/lei/gap_training_addCracks/turboSOAP_iter11/gap_Fe_test.xml   "Potential xml_label=GAP_2022_3_10_60_5_9_4_798" 26
#pair_coeff      * * /home/lei/gap_training_addCracks/turboSOAP_iter11_basis10/gap_Fe_test.xml   "Potential xml_label=GAP_2022_3_10_60_10_51_48_731" 26
#pair_coeff      * * /home/lei/gap_training_addCracks/doubleturboSOAP_iter11/gap_Fe_test.xml   "Potential xml_label=GAP_2022_3_9_60_23_12_29_37" 26
#pair_coeff      * * /home/lei/gap_training_addCracks/turboSOAP_iter11_compressfile/gap_Fe_test.xml   "Potential xml_label=GAP_2022_3_10_60_11_56_19_400" 26
#pair_coeff      * * /home/lei/gap_snellius/doubleturboSOAP_iter11_basis8/gap_Fe_test.xml   "Potential xml_label=GAP_2022_3_10_60_18_34_37_91" 26
#pair_coeff      * * /home/lei/gap_snellius/doubleturboSOAP_iter0_basis8/gap_Fe_test.xml "Potential xml_label=GAP_2022_3_11_60_22_7_9_623" 26
#pair_coeff      * * /home/lei/gap_snellius/doubleturboSOAP_iter0_hcp_basis8/gap_Fe_test.xml "Potential xml_label=GAP_2022_3_28_120_15_22_12_14" 26
#pair_coeff      * * /home/lei/gap_snellius/final/gap_Fe_test.xml "Potential xml_label=GAP_2022_5_28_120_3_13_35_983" 26
#---------------------------------------------

#---------------------ADP---------------------
# pair_style adp
# pair_coeff * * /home/lei/crackTip_ADP/Fe_nmFe.2021.adp.alloy Fe
#---------------------------------------------
neighbor        2.0 bin
neigh_modify    every 1 delay 0 check yes

#-------Define atom mass (no needed for moelcular statics) ------------
mass            1 55.845

#-------Compute--------------------------------------------------------
compute 	eng all pe/atom
compute 	new all temp
compute 	csym all centro/atom bcc
compute 	poten all pe
compute 	stress all stress/atom NULL

#------Relaxation ------------------------------------------------------
thermo          100
thermo_style    custom step pe lx ly lz pxx pyy pzz pxy pxz pyz press

min_style       cg
minimize        1e-30 10e-12 100000000 1000000000
Neighbor list info ...
  update every 1 steps, delay 0 steps, check yes
  max neighbors/atom: 2000, page size: 100000
  master list distance cutoff = 8.5
  ghost atom cutoff = 8.5
  binsize = 4.25, bins = 1 1 1
  2 neighbor lists, perpetual/occasional/extra = 1 1 0
  (1) pair quip, perpetual
      attributes: full, newton on
      pair build: full/bin/atomonly
      stencil: full/bin/3d
      bin: standard
  (2) compute centro/atom, occasional, copy from (1)
      attributes: full, newton on
      pair build: copy
      stencil: none
      bin: none
WARNING: Proc sub-domain size < neighbor skin, could lead to lost atoms (../domain.cpp:970)
Per MPI rank memory allocation (min/avg/max) = 5.076 | 5.077 | 5.079 Mbytes
   Step         PotEng           Lx             Ly             Lz            Pxx            Pyy            Pzz            Pxy            Pxz            Pyz           Press     
         0   1.9045719      2.7906667      2.7906667      2.7906667      481776.71      481776.71      481776.71      2.0861232e-11 -4.8594213e-12  3.8365245e-13  481776.71    
         1   1.9045719      2.7906667      2.7906667      2.7906667      481776.71      481776.71      481776.71      2.0861232e-11 -4.8594213e-12  3.8365245e-13  481776.71    
Loop time of 0.017086 on 4 procs for 1 steps with 2 atoms

99.6% CPU use with 4 MPI tasks x no OpenMP threads

Minimization stats:
  Stopping criterion = linesearch alpha is zero
  Energy initial, next-to-last, final = 
      1.90457193004473   1.90457193004473   1.90457193004473
  Force two-norm initial, final = 8.3854377e-16 8.3854377e-16
  Force max component initial, final = 6.1062286e-16 6.1062286e-16
  Final line search alpha, max atom move = 0.5 3.0531143e-16
  Iterations, force evaluations = 1 2

MPI task timing breakdown:
Section |  min time  |  avg time  |  max time  |%varavg| %total
---------------------------------------------------------------
Pair    | 1.6642e-05 | 0.0084339  | 0.016859   |   9.2 | 49.36
Neigh   | 0          | 0          | 0          |   0.0 |  0.00
Comm    | 0.00018222 | 0.008605   | 0.017024   |   9.1 | 50.36
Output  | 0          | 0          | 0          |   0.0 |  0.00
Modify  | 0          | 0          | 0          |   0.0 |  0.00
Other   |            | 4.712e-05  |            |       |  0.28

Nlocal:            0.5 ave           1 max           0 min
Histogram: 2 0 0 0 0 0 0 0 0 2
Nghost:          734.5 ave         735 max         734 min
Histogram: 2 0 0 0 0 0 0 0 0 2
Neighs:              0 ave           0 max           0 min
Histogram: 4 0 0 0 0 0 0 0 0 0
FullNghs:          129 ave         258 max           0 min
Histogram: 2 0 0 0 0 0 0 0 0 2

Total # of neighbors = 516
Ave neighs/atom = 258
Neighbor list builds = 0
Dangerous builds = 0
#-----Calculate the lattice parameter-----------------------------------
variable        tmp equal "lx"
variable        LX equal ${tmp}
variable        LX equal 2.79066666666667
variable        tmp equal "ly"
variable        LY equal ${tmp}
variable        LY equal 2.79066666666667
variable        tmp equal "lz"
variable        LZ equal ${tmp}
variable        LZ equal 2.79066666666667
variable        tmp equal "atoms"
variable        N equal ${tmp}
variable        N equal 2
variable        V equal (${LX}*${LY}*${LZ})
variable        V equal (2.79066666666667*${LY}*${LZ})
variable        V equal (2.79066666666667*2.79066666666667*${LZ})
variable        V equal (2.79066666666667*2.79066666666667*2.79066666666667)
variable        tmp equal "pe"
variable        pe0 equal ${tmp}
variable        pe0 equal 1.90457193004473

variable        teng equal ${pe0}/${N}
variable        teng equal 1.90457193004473/${N}
variable        teng equal 1.90457193004473/2
variable        vol  equal ${V}/${N}
variable        vol  equal 21.7332109202964/${N}
variable        vol  equal 21.7332109202964/2
#-----compute
print           "${vol} ${teng}" append ./volume.dat
10.8666054601482 0.952285965022365

#-----jump to next loop
next            i
jump            in.eos loop_start

variable        i loop 1 30
variable        latparam equal 2.834-0.05+(0.1/30)*${i}
variable        latparam equal 2.834-0.05+(0.1/30)*3

clear
units           metal
dimension       3
boundary        p p p
atom_style      atomic
atom_modify     map yes

#-------Define geometry  (2d X 2d) -------------------------------------------------
lattice         bcc ${latparam} orient x 1 0 0 orient y 0 1 0 orient z 0 0 1
lattice         bcc 2.794 orient x 1 0 0 orient y 0 1 0 orient z 0 0 1
Lattice spacing in x,y,z = 2.794 2.794 2.794
region          box block 0 1 0 1 0 1 units lattice
create_box      1 box
Created orthogonal box = (0 0 0) to (2.794 2.794 2.794)
  1 by 2 by 2 MPI processor grid
create_atoms    1 box
Created 2 atoms
  using lattice units in orthogonal box = (0 0 0) to (2.794 2.794 2.794)
  create_atoms CPU = 0.000 seconds

#-------Define interatomic potential-----------------------------------
include         ../potential.in
#pair_style      aenet
#pair_coeff      * * v-1 Fe 15tw-15tw.nn Fe
#----------------------NEUip
#pair_style  pace
#pair_coeff * * /scratch-shared/zhanglei1/ace_julia_training_slovers/N4.D14_rrqr/Fe_ace_N4_D14_R5.yace Fe
#pair_coeff  * * /data/lei/train_ace_2021_12_08/training_ace_iron_2022_08_12_v2/interim_potential_0.yace Fe
#pair_coeff  * * /data/lei/train_ace_2021_12_08/training_ace_iron_2022_08_12_v3_iter2000/interim_potential_0.yace Fe
#pair_coeff  * * /data/lei/train_ace_2021_12_08/training_ace_iron_2022_08_16/interim_potential_0.yace Fe
#pair_coeff  * * /data/lei/ace_iron/ace_Cas_suggested/Fe_ace_N3_D10_R5.yace Fe
#pair_coeff  * * /data/lei/ace_iron/ace_Cas_suggested_updated_1/Fe_ace_N3_D10_R5.yace Fe
#pair_coeff  * * /data/lei/ace_iron/ace_tuning_weights/Fe_ace_N3_D10_R5.yace Fe
#pair_coeff  * * /data/lei/ace_iron/ace_tuning_weights/Fe_ace_N3_D16_R5.yace Fe
#pair_coeff  * * /data/lei/ace_iron/ace_tuning_weights/Fe_ace_N4_D12_R5.yace Fe
#pair_coeff  * * /home/lei/ACEproject/ace_models/Fe_ace_N4_D18_R5.yace Fe
#pair_coeff  * * /home/lei/ACEproject/ace_models/Fe_ace_N3_D18_R5.yace Fe
#pair_coeff  * * /data/lei/train_ace_2021_12_08/training_ace_iron_2022_08_12_v3_iter2000/output_potential.yace Fe
# Addition
#newton  off

#pair_style	allegro
#pair_coeff	* * /home/zhanglei1/automatic_workflow_IAP_v1_2021_12_01/allegro-single-deployed_2022_09_22/allegro-single-deployed.pth Fe

# ---------------------GAP--------------------
pair_style      quip
pair_coeff      * * /scratch-shared/zhanglei1/GAP_training_OgataDBs/M4700_l8n8_R6.5_noIso/gap_Fe_test.xml "Potential xml_label=GAP_2022_10_11_120_15_58_18_226" 26
#pair_coeff      * * /scratch-shared/zhanglei1/GAP_training/M3000_l6n6/gap_Fe_test.xml "Potential xml_label=GAP_2022_10_3_120_16_55_34_368" 26
#pair_coeff      * * /home/lei/gap_training/l_6_n_12_allNewData/gap_Fe_test.xml "Potential xml_label=GAP_2021_12_1_60_0_17_25_709" 26
#pair_coeff      * * /home/lei/gap_training_2021_12_13/l_6_n_12_allNewData_turboSOAP/gap_Fe_test.xml "Potential xml_label=GAP_2021_12_12_60_17_6_15_829" 26 # TurboSOAP descriptor
#pair_coeff      * * /home/lei/gap_training_2021_12_13/l_6_n_12_allNewData_doubleSOAP/gap_Fe_test.xml "Potential xml_label=GAP_2021_12_14_60_8_16_28_553" 26
#pair_coeff      * * /home/lei/gap_training_2021_12_13/l_6_n_12_newdata_2021_12_16/gap_Fe_test.xml "Potential xml_label=GAP_2021_12_17_60_2_59_46_132" 26
#pair_coeff      * * /home/lei/gap_training_2021_12_13/l_6_n_12_newdata_doubleSOAP_2021_12_17/gap_Fe_test.xml   "Potential xml_label=GAP_2021_12_17_60_21_56_31_840" 26
#pair_coeff      * * /data/lei/gap_training_2021_12_13/l_6_n_12_newdata_doubleSOAP_2021_12_21/gap_Fe_test.xml   "Potential xml_label=GAP_2021_12_21_60_14_55_52_923" 26
#pair_coeff      * * /home/lei/gap_training_2021_12_13/l_6_n_12_newdata_doubleSOAP_Rcut6_2021_12_21/gap_Fe_test.xml   "Potential xml_label=GAP_2021_12_21_60_22_39_47_189" 26
#pair_coeff      * * /data/lei/gap_training_addCracks_2022_01_25/doubSOAP_R5_2022_01_25/gap_Fe_test.xml   "Potential xml_label=GAP_2022_1_26_60_7_10_9_751" 26

#pair_coeff      * * /home/p301616/gap_trainedOn_nieuwpoort/doubSOAP_R5_2022_01_28/gap_Fe_test.xml   "Potential xml_label=GAP_2022_1_29_60_3_44_50_986" 26

#pair_coeff      * * /home/lei/gap_training_addCracks_2022_01_25/doubSOAP_R5_2022_02_10_iter3/gap_Fe_test.xml   "Potential xml_label=GAP_2022_2_11_60_3_6_24_998" 26
#pair_coeff      * * /home/lei/gap_training_addCracks/doubSOAP_R5_2022_02_23_iter8/gap_Fe_test.xml   "Potential xml_label=GAP_2022_2_23_60_14_2_51_919" 26
#pair_coeff      * * /home/lei/gap_training_addCracks/turboSOAP_iter10/gap_Fe_test.xml   "Potential xml_label=GAP_2022_3_8_60_9_8_45_147" 26
#pair_coeff      * * /home/lei/gap_training_addCracks/turboSOAP_iter11/gap_Fe_test.xml   "Potential xml_label=GAP_2022_3_8_60_14_22_10_147" 26
#pair_coeff      * * /home/lei/gap_training_addCracks/doubSOAP_R5_2022_03_08_iter11/gap_Fe_test.xml   "Potential xml_label=GAP_2022_3_8_60_13_19_13_884" 26
#pair_coeff      * * /home/lei/gap_training_addCracks/turboSOAP_iter11_2/gap_Fe_test.xml   "Potential xml_label=GAP_2022_3_9_60_20_54_41_133" 26
#pair_coeff      * * /home/lei/gap_training_addCracks/turboSOAP_iter11/gap_Fe_test.xml   "Potential xml_label=GAP_2022_3_10_60_5_9_4_798" 26
#pair_coeff      * * /home/lei/gap_training_addCracks/turboSOAP_iter11_basis10/gap_Fe_test.xml   "Potential xml_label=GAP_2022_3_10_60_10_51_48_731" 26
#pair_coeff      * * /home/lei/gap_training_addCracks/doubleturboSOAP_iter11/gap_Fe_test.xml   "Potential xml_label=GAP_2022_3_9_60_23_12_29_37" 26
#pair_coeff      * * /home/lei/gap_training_addCracks/turboSOAP_iter11_compressfile/gap_Fe_test.xml   "Potential xml_label=GAP_2022_3_10_60_11_56_19_400" 26
#pair_coeff      * * /home/lei/gap_snellius/doubleturboSOAP_iter11_basis8/gap_Fe_test.xml   "Potential xml_label=GAP_2022_3_10_60_18_34_37_91" 26
#pair_coeff      * * /home/lei/gap_snellius/doubleturboSOAP_iter0_basis8/gap_Fe_test.xml "Potential xml_label=GAP_2022_3_11_60_22_7_9_623" 26
#pair_coeff      * * /home/lei/gap_snellius/doubleturboSOAP_iter0_hcp_basis8/gap_Fe_test.xml "Potential xml_label=GAP_2022_3_28_120_15_22_12_14" 26
#pair_coeff      * * /home/lei/gap_snellius/final/gap_Fe_test.xml "Potential xml_label=GAP_2022_5_28_120_3_13_35_983" 26
#---------------------------------------------

#---------------------ADP---------------------
# pair_style adp
# pair_coeff * * /home/lei/crackTip_ADP/Fe_nmFe.2021.adp.alloy Fe
#---------------------------------------------
neighbor        2.0 bin
neigh_modify    every 1 delay 0 check yes

#-------Define atom mass (no needed for moelcular statics) ------------
mass            1 55.845

#-------Compute--------------------------------------------------------
compute 	eng all pe/atom
compute 	new all temp
compute 	csym all centro/atom bcc
compute 	poten all pe
compute 	stress all stress/atom NULL

#------Relaxation ------------------------------------------------------
thermo          100
thermo_style    custom step pe lx ly lz pxx pyy pzz pxy pxz pyz press

min_style       cg
minimize        1e-30 10e-12 100000000 1000000000
Neighbor list info ...
  update every 1 steps, delay 0 steps, check yes
  max neighbors/atom: 2000, page size: 100000
  master list distance cutoff = 8.5
  ghost atom cutoff = 8.5
  binsize = 4.25, bins = 1 1 1
  2 neighbor lists, perpetual/occasional/extra = 1 1 0
  (1) pair quip, perpetual
      attributes: full, newton on
      pair build: full/bin/atomonly
      stencil: full/bin/3d
      bin: standard
  (2) compute centro/atom, occasional, copy from (1)
      attributes: full, newton on
      pair build: copy
      stencil: none
      bin: none
WARNING: Proc sub-domain size < neighbor skin, could lead to lost atoms (../domain.cpp:970)
Per MPI rank memory allocation (min/avg/max) = 5.076 | 5.077 | 5.079 Mbytes
   Step         PotEng           Lx             Ly             Lz            Pxx            Pyy            Pzz            Pxy            Pxz            Pyz           Press     
         0   1.8812849      2.794          2.794          2.794          475239.66      475239.66      475239.66     -4.2037261e-05 -4.2037219e-05 -4.2037244e-05  475239.66    
         1   1.8812849      2.794          2.794          2.794          475239.66      475239.66      475239.66     -4.2037261e-05 -4.2037219e-05 -4.2037244e-05  475239.66    
Loop time of 0.0171439 on 4 procs for 1 steps with 2 atoms

99.5% CPU use with 4 MPI tasks x no OpenMP threads

Minimization stats:
  Stopping criterion = linesearch alpha is zero
  Energy initial, next-to-last, final = 
      1.88128490681366   1.88128490681366   1.88128490681366
  Force two-norm initial, final = 1.4973848e-13 1.4973848e-13
  Force max component initial, final = 6.1586766e-14 6.1586766e-14
  Final line search alpha, max atom move = 0.5 3.0793383e-14
  Iterations, force evaluations = 1 2

MPI task timing breakdown:
Section |  min time  |  avg time  |  max time  |%varavg| %total
---------------------------------------------------------------
Pair    | 1.64e-05   | 0.0084642  | 0.016969   |   9.2 | 49.37
Neigh   | 0          | 0          | 0          |   0.0 |  0.00
Comm    | 0.00012811 | 0.0086344  | 0.017083   |   9.1 | 50.36
Output  | 0          | 0          | 0          |   0.0 |  0.00
Modify  | 0          | 0          | 0          |   0.0 |  0.00
Other   |            | 4.533e-05  |            |       |  0.26

Nlocal:            0.5 ave           1 max           0 min
Histogram: 2 0 0 0 0 0 0 0 0 2
Nghost:          734.5 ave         735 max         734 min
Histogram: 2 0 0 0 0 0 0 0 0 2
Neighs:              0 ave           0 max           0 min
Histogram: 4 0 0 0 0 0 0 0 0 0
FullNghs:          129 ave         258 max           0 min
Histogram: 2 0 0 0 0 0 0 0 0 2

Total # of neighbors = 516
Ave neighs/atom = 258
Neighbor list builds = 0
Dangerous builds = 0
#-----Calculate the lattice parameter-----------------------------------
variable        tmp equal "lx"
variable        LX equal ${tmp}
variable        LX equal 2.794
variable        tmp equal "ly"
variable        LY equal ${tmp}
variable        LY equal 2.794
variable        tmp equal "lz"
variable        LZ equal ${tmp}
variable        LZ equal 2.794
variable        tmp equal "atoms"
variable        N equal ${tmp}
variable        N equal 2
variable        V equal (${LX}*${LY}*${LZ})
variable        V equal (2.794*${LY}*${LZ})
variable        V equal (2.794*2.794*${LZ})
variable        V equal (2.794*2.794*2.794)
variable        tmp equal "pe"
variable        pe0 equal ${tmp}
variable        pe0 equal 1.88128490681366

variable        teng equal ${pe0}/${N}
variable        teng equal 1.88128490681366/${N}
variable        teng equal 1.88128490681366/2
variable        vol  equal ${V}/${N}
variable        vol  equal 21.811182184/${N}
variable        vol  equal 21.811182184/2
#-----compute
print           "${vol} ${teng}" append ./volume.dat
10.905591092 0.94064245340683

#-----jump to next loop
next            i
jump            in.eos loop_start

variable        i loop 1 30
variable        latparam equal 2.834-0.05+(0.1/30)*${i}
variable        latparam equal 2.834-0.05+(0.1/30)*4

clear
units           metal
dimension       3
boundary        p p p
atom_style      atomic
atom_modify     map yes

#-------Define geometry  (2d X 2d) -------------------------------------------------
lattice         bcc ${latparam} orient x 1 0 0 orient y 0 1 0 orient z 0 0 1
lattice         bcc 2.79733333333333 orient x 1 0 0 orient y 0 1 0 orient z 0 0 1
Lattice spacing in x,y,z = 2.7973333 2.7973333 2.7973333
region          box block 0 1 0 1 0 1 units lattice
create_box      1 box
Created orthogonal box = (0 0 0) to (2.7973333 2.7973333 2.7973333)
  2 by 1 by 2 MPI processor grid
create_atoms    1 box
Created 2 atoms
  using lattice units in orthogonal box = (0 0 0) to (2.7973333 2.7973333 2.7973333)
  create_atoms CPU = 0.000 seconds

#-------Define interatomic potential-----------------------------------
include         ../potential.in
#pair_style      aenet
#pair_coeff      * * v-1 Fe 15tw-15tw.nn Fe
#----------------------NEUip
#pair_style  pace
#pair_coeff * * /scratch-shared/zhanglei1/ace_julia_training_slovers/N4.D14_rrqr/Fe_ace_N4_D14_R5.yace Fe
#pair_coeff  * * /data/lei/train_ace_2021_12_08/training_ace_iron_2022_08_12_v2/interim_potential_0.yace Fe
#pair_coeff  * * /data/lei/train_ace_2021_12_08/training_ace_iron_2022_08_12_v3_iter2000/interim_potential_0.yace Fe
#pair_coeff  * * /data/lei/train_ace_2021_12_08/training_ace_iron_2022_08_16/interim_potential_0.yace Fe
#pair_coeff  * * /data/lei/ace_iron/ace_Cas_suggested/Fe_ace_N3_D10_R5.yace Fe
#pair_coeff  * * /data/lei/ace_iron/ace_Cas_suggested_updated_1/Fe_ace_N3_D10_R5.yace Fe
#pair_coeff  * * /data/lei/ace_iron/ace_tuning_weights/Fe_ace_N3_D10_R5.yace Fe
#pair_coeff  * * /data/lei/ace_iron/ace_tuning_weights/Fe_ace_N3_D16_R5.yace Fe
#pair_coeff  * * /data/lei/ace_iron/ace_tuning_weights/Fe_ace_N4_D12_R5.yace Fe
#pair_coeff  * * /home/lei/ACEproject/ace_models/Fe_ace_N4_D18_R5.yace Fe
#pair_coeff  * * /home/lei/ACEproject/ace_models/Fe_ace_N3_D18_R5.yace Fe
#pair_coeff  * * /data/lei/train_ace_2021_12_08/training_ace_iron_2022_08_12_v3_iter2000/output_potential.yace Fe
# Addition
#newton  off

#pair_style	allegro
#pair_coeff	* * /home/zhanglei1/automatic_workflow_IAP_v1_2021_12_01/allegro-single-deployed_2022_09_22/allegro-single-deployed.pth Fe

# ---------------------GAP--------------------
pair_style      quip
pair_coeff      * * /scratch-shared/zhanglei1/GAP_training_OgataDBs/M4700_l8n8_R6.5_noIso/gap_Fe_test.xml "Potential xml_label=GAP_2022_10_11_120_15_58_18_226" 26
#pair_coeff      * * /scratch-shared/zhanglei1/GAP_training/M3000_l6n6/gap_Fe_test.xml "Potential xml_label=GAP_2022_10_3_120_16_55_34_368" 26
#pair_coeff      * * /home/lei/gap_training/l_6_n_12_allNewData/gap_Fe_test.xml "Potential xml_label=GAP_2021_12_1_60_0_17_25_709" 26
#pair_coeff      * * /home/lei/gap_training_2021_12_13/l_6_n_12_allNewData_turboSOAP/gap_Fe_test.xml "Potential xml_label=GAP_2021_12_12_60_17_6_15_829" 26 # TurboSOAP descriptor
#pair_coeff      * * /home/lei/gap_training_2021_12_13/l_6_n_12_allNewData_doubleSOAP/gap_Fe_test.xml "Potential xml_label=GAP_2021_12_14_60_8_16_28_553" 26
#pair_coeff      * * /home/lei/gap_training_2021_12_13/l_6_n_12_newdata_2021_12_16/gap_Fe_test.xml "Potential xml_label=GAP_2021_12_17_60_2_59_46_132" 26
#pair_coeff      * * /home/lei/gap_training_2021_12_13/l_6_n_12_newdata_doubleSOAP_2021_12_17/gap_Fe_test.xml   "Potential xml_label=GAP_2021_12_17_60_21_56_31_840" 26
#pair_coeff      * * /data/lei/gap_training_2021_12_13/l_6_n_12_newdata_doubleSOAP_2021_12_21/gap_Fe_test.xml   "Potential xml_label=GAP_2021_12_21_60_14_55_52_923" 26
#pair_coeff      * * /home/lei/gap_training_2021_12_13/l_6_n_12_newdata_doubleSOAP_Rcut6_2021_12_21/gap_Fe_test.xml   "Potential xml_label=GAP_2021_12_21_60_22_39_47_189" 26
#pair_coeff      * * /data/lei/gap_training_addCracks_2022_01_25/doubSOAP_R5_2022_01_25/gap_Fe_test.xml   "Potential xml_label=GAP_2022_1_26_60_7_10_9_751" 26

#pair_coeff      * * /home/p301616/gap_trainedOn_nieuwpoort/doubSOAP_R5_2022_01_28/gap_Fe_test.xml   "Potential xml_label=GAP_2022_1_29_60_3_44_50_986" 26

#pair_coeff      * * /home/lei/gap_training_addCracks_2022_01_25/doubSOAP_R5_2022_02_10_iter3/gap_Fe_test.xml   "Potential xml_label=GAP_2022_2_11_60_3_6_24_998" 26
#pair_coeff      * * /home/lei/gap_training_addCracks/doubSOAP_R5_2022_02_23_iter8/gap_Fe_test.xml   "Potential xml_label=GAP_2022_2_23_60_14_2_51_919" 26
#pair_coeff      * * /home/lei/gap_training_addCracks/turboSOAP_iter10/gap_Fe_test.xml   "Potential xml_label=GAP_2022_3_8_60_9_8_45_147" 26
#pair_coeff      * * /home/lei/gap_training_addCracks/turboSOAP_iter11/gap_Fe_test.xml   "Potential xml_label=GAP_2022_3_8_60_14_22_10_147" 26
#pair_coeff      * * /home/lei/gap_training_addCracks/doubSOAP_R5_2022_03_08_iter11/gap_Fe_test.xml   "Potential xml_label=GAP_2022_3_8_60_13_19_13_884" 26
#pair_coeff      * * /home/lei/gap_training_addCracks/turboSOAP_iter11_2/gap_Fe_test.xml   "Potential xml_label=GAP_2022_3_9_60_20_54_41_133" 26
#pair_coeff      * * /home/lei/gap_training_addCracks/turboSOAP_iter11/gap_Fe_test.xml   "Potential xml_label=GAP_2022_3_10_60_5_9_4_798" 26
#pair_coeff      * * /home/lei/gap_training_addCracks/turboSOAP_iter11_basis10/gap_Fe_test.xml   "Potential xml_label=GAP_2022_3_10_60_10_51_48_731" 26
#pair_coeff      * * /home/lei/gap_training_addCracks/doubleturboSOAP_iter11/gap_Fe_test.xml   "Potential xml_label=GAP_2022_3_9_60_23_12_29_37" 26
#pair_coeff      * * /home/lei/gap_training_addCracks/turboSOAP_iter11_compressfile/gap_Fe_test.xml   "Potential xml_label=GAP_2022_3_10_60_11_56_19_400" 26
#pair_coeff      * * /home/lei/gap_snellius/doubleturboSOAP_iter11_basis8/gap_Fe_test.xml   "Potential xml_label=GAP_2022_3_10_60_18_34_37_91" 26
#pair_coeff      * * /home/lei/gap_snellius/doubleturboSOAP_iter0_basis8/gap_Fe_test.xml "Potential xml_label=GAP_2022_3_11_60_22_7_9_623" 26
#pair_coeff      * * /home/lei/gap_snellius/doubleturboSOAP_iter0_hcp_basis8/gap_Fe_test.xml "Potential xml_label=GAP_2022_3_28_120_15_22_12_14" 26
#pair_coeff      * * /home/lei/gap_snellius/final/gap_Fe_test.xml "Potential xml_label=GAP_2022_5_28_120_3_13_35_983" 26
#---------------------------------------------

#---------------------ADP---------------------
# pair_style adp
# pair_coeff * * /home/lei/crackTip_ADP/Fe_nmFe.2021.adp.alloy Fe
#---------------------------------------------
neighbor        2.0 bin
neigh_modify    every 1 delay 0 check yes

#-------Define atom mass (no needed for moelcular statics) ------------
mass            1 55.845

#-------Compute--------------------------------------------------------
compute 	eng all pe/atom
compute 	new all temp
compute 	csym all centro/atom bcc
compute 	poten all pe
compute 	stress all stress/atom NULL

#------Relaxation ------------------------------------------------------
thermo          100
thermo_style    custom step pe lx ly lz pxx pyy pzz pxy pxz pyz press

min_style       cg
minimize        1e-30 10e-12 100000000 1000000000
Neighbor list info ...
  update every 1 steps, delay 0 steps, check yes
  max neighbors/atom: 2000, page size: 100000
  master list distance cutoff = 8.5
  ghost atom cutoff = 8.5
  binsize = 4.25, bins = 1 1 1
  2 neighbor lists, perpetual/occasional/extra = 1 1 0
  (1) pair quip, perpetual
      attributes: full, newton on
      pair build: full/bin/atomonly
      stencil: full/bin/3d
      bin: standard
  (2) compute centro/atom, occasional, copy from (1)
      attributes: full, newton on
      pair build: copy
      stencil: none
      bin: none
WARNING: Proc sub-domain size < neighbor skin, could lead to lost atoms (../domain.cpp:970)
Per MPI rank memory allocation (min/avg/max) = 5.076 | 5.077 | 5.079 Mbytes
   Step         PotEng           Lx             Ly             Lz            Pxx            Pyy            Pzz            Pxy            Pxz            Pyz           Press     
         0   1.8582618      2.7973333      2.7973333      2.7973333      468672.38      468672.38      468672.38     -2.8218003e-06 -2.8218206e-06 -2.8217946e-06  468672.38    
         1   1.8582618      2.7973333      2.7973333      2.7973333      468672.38      468672.38      468672.38     -2.8218003e-06 -2.8218206e-06 -2.8217946e-06  468672.38    
Loop time of 0.01705 on 4 procs for 1 steps with 2 atoms

99.6% CPU use with 4 MPI tasks x no OpenMP threads

Minimization stats:
  Stopping criterion = energy tolerance
  Energy initial, next-to-last, final = 
      1.85826184701679   1.85826184701679   1.85826184701679
  Force two-norm initial, final = 1.4854596e-13 1.4854596e-13
  Force max component initial, final = 6.1715736e-14 6.1715736e-14
  Final line search alpha, max atom move = 1 6.1715736e-14
  Iterations, force evaluations = 1 2

MPI task timing breakdown:
Section |  min time  |  avg time  |  max time  |%varavg| %total
---------------------------------------------------------------
Pair    | 1.5799e-05 | 0.0084073  | 0.016884   |   9.2 | 49.31
Neigh   | 0          | 0          | 0          |   0.0 |  0.00
Comm    | 0.00012254 | 0.0085999  | 0.016991   |   9.0 | 50.44
Output  | 0          | 0          | 0          |   0.0 |  0.00
Modify  | 0          | 0          | 0          |   0.0 |  0.00
Other   |            | 4.271e-05  |            |       |  0.25

Nlocal:            0.5 ave           1 max           0 min
Histogram: 2 0 0 0 0 0 0 0 0 2
Nghost:          734.5 ave         735 max         734 min
Histogram: 2 0 0 0 0 0 0 0 0 2
Neighs:              0 ave           0 max           0 min
Histogram: 4 0 0 0 0 0 0 0 0 0
FullNghs:          129 ave         258 max           0 min
Histogram: 2 0 0 0 0 0 0 0 0 2

Total # of neighbors = 516
Ave neighs/atom = 258
Neighbor list builds = 0
Dangerous builds = 0
#-----Calculate the lattice parameter-----------------------------------
variable        tmp equal "lx"
variable        LX equal ${tmp}
variable        LX equal 2.79733333333333
variable        tmp equal "ly"
variable        LY equal ${tmp}
variable        LY equal 2.79733333333333
variable        tmp equal "lz"
variable        LZ equal ${tmp}
variable        LZ equal 2.79733333333333
variable        tmp equal "atoms"
variable        N equal ${tmp}
variable        N equal 2
variable        V equal (${LX}*${LY}*${LZ})
variable        V equal (2.79733333333333*${LY}*${LZ})
variable        V equal (2.79733333333333*2.79733333333333*${LZ})
variable        V equal (2.79733333333333*2.79733333333333*2.79733333333333)
variable        tmp equal "pe"
variable        pe0 equal ${tmp}
variable        pe0 equal 1.85826184701679

variable        teng equal ${pe0}/${N}
variable        teng equal 1.85826184701679/${N}
variable        teng equal 1.85826184701679/2
variable        vol  equal ${V}/${N}
variable        vol  equal 21.8893397143703/${N}
variable        vol  equal 21.8893397143703/2
#-----compute
print           "${vol} ${teng}" append ./volume.dat
10.9446698571852 0.929130923508395

#-----jump to next loop
next            i
jump            in.eos loop_start

variable        i loop 1 30
variable        latparam equal 2.834-0.05+(0.1/30)*${i}
variable        latparam equal 2.834-0.05+(0.1/30)*5

clear
units           metal
dimension       3
boundary        p p p
atom_style      atomic
atom_modify     map yes

#-------Define geometry  (2d X 2d) -------------------------------------------------
lattice         bcc ${latparam} orient x 1 0 0 orient y 0 1 0 orient z 0 0 1
lattice         bcc 2.80066666666667 orient x 1 0 0 orient y 0 1 0 orient z 0 0 1
Lattice spacing in x,y,z = 2.8006667 2.8006667 2.8006667
region          box block 0 1 0 1 0 1 units lattice
create_box      1 box
Created orthogonal box = (0 0 0) to (2.8006667 2.8006667 2.8006667)
  1 by 2 by 2 MPI processor grid
create_atoms    1 box
Created 2 atoms
  using lattice units in orthogonal box = (0 0 0) to (2.8006667 2.8006667 2.8006667)
  create_atoms CPU = 0.000 seconds

#-------Define interatomic potential-----------------------------------
include         ../potential.in
#pair_style      aenet
#pair_coeff      * * v-1 Fe 15tw-15tw.nn Fe
#----------------------NEUip
#pair_style  pace
#pair_coeff * * /scratch-shared/zhanglei1/ace_julia_training_slovers/N4.D14_rrqr/Fe_ace_N4_D14_R5.yace Fe
#pair_coeff  * * /data/lei/train_ace_2021_12_08/training_ace_iron_2022_08_12_v2/interim_potential_0.yace Fe
#pair_coeff  * * /data/lei/train_ace_2021_12_08/training_ace_iron_2022_08_12_v3_iter2000/interim_potential_0.yace Fe
#pair_coeff  * * /data/lei/train_ace_2021_12_08/training_ace_iron_2022_08_16/interim_potential_0.yace Fe
#pair_coeff  * * /data/lei/ace_iron/ace_Cas_suggested/Fe_ace_N3_D10_R5.yace Fe
#pair_coeff  * * /data/lei/ace_iron/ace_Cas_suggested_updated_1/Fe_ace_N3_D10_R5.yace Fe
#pair_coeff  * * /data/lei/ace_iron/ace_tuning_weights/Fe_ace_N3_D10_R5.yace Fe
#pair_coeff  * * /data/lei/ace_iron/ace_tuning_weights/Fe_ace_N3_D16_R5.yace Fe
#pair_coeff  * * /data/lei/ace_iron/ace_tuning_weights/Fe_ace_N4_D12_R5.yace Fe
#pair_coeff  * * /home/lei/ACEproject/ace_models/Fe_ace_N4_D18_R5.yace Fe
#pair_coeff  * * /home/lei/ACEproject/ace_models/Fe_ace_N3_D18_R5.yace Fe
#pair_coeff  * * /data/lei/train_ace_2021_12_08/training_ace_iron_2022_08_12_v3_iter2000/output_potential.yace Fe
# Addition
#newton  off

#pair_style	allegro
#pair_coeff	* * /home/zhanglei1/automatic_workflow_IAP_v1_2021_12_01/allegro-single-deployed_2022_09_22/allegro-single-deployed.pth Fe

# ---------------------GAP--------------------
pair_style      quip
pair_coeff      * * /scratch-shared/zhanglei1/GAP_training_OgataDBs/M4700_l8n8_R6.5_noIso/gap_Fe_test.xml "Potential xml_label=GAP_2022_10_11_120_15_58_18_226" 26
#pair_coeff      * * /scratch-shared/zhanglei1/GAP_training/M3000_l6n6/gap_Fe_test.xml "Potential xml_label=GAP_2022_10_3_120_16_55_34_368" 26
#pair_coeff      * * /home/lei/gap_training/l_6_n_12_allNewData/gap_Fe_test.xml "Potential xml_label=GAP_2021_12_1_60_0_17_25_709" 26
#pair_coeff      * * /home/lei/gap_training_2021_12_13/l_6_n_12_allNewData_turboSOAP/gap_Fe_test.xml "Potential xml_label=GAP_2021_12_12_60_17_6_15_829" 26 # TurboSOAP descriptor
#pair_coeff      * * /home/lei/gap_training_2021_12_13/l_6_n_12_allNewData_doubleSOAP/gap_Fe_test.xml "Potential xml_label=GAP_2021_12_14_60_8_16_28_553" 26
#pair_coeff      * * /home/lei/gap_training_2021_12_13/l_6_n_12_newdata_2021_12_16/gap_Fe_test.xml "Potential xml_label=GAP_2021_12_17_60_2_59_46_132" 26
#pair_coeff      * * /home/lei/gap_training_2021_12_13/l_6_n_12_newdata_doubleSOAP_2021_12_17/gap_Fe_test.xml   "Potential xml_label=GAP_2021_12_17_60_21_56_31_840" 26
#pair_coeff      * * /data/lei/gap_training_2021_12_13/l_6_n_12_newdata_doubleSOAP_2021_12_21/gap_Fe_test.xml   "Potential xml_label=GAP_2021_12_21_60_14_55_52_923" 26
#pair_coeff      * * /home/lei/gap_training_2021_12_13/l_6_n_12_newdata_doubleSOAP_Rcut6_2021_12_21/gap_Fe_test.xml   "Potential xml_label=GAP_2021_12_21_60_22_39_47_189" 26
#pair_coeff      * * /data/lei/gap_training_addCracks_2022_01_25/doubSOAP_R5_2022_01_25/gap_Fe_test.xml   "Potential xml_label=GAP_2022_1_26_60_7_10_9_751" 26

#pair_coeff      * * /home/p301616/gap_trainedOn_nieuwpoort/doubSOAP_R5_2022_01_28/gap_Fe_test.xml   "Potential xml_label=GAP_2022_1_29_60_3_44_50_986" 26

#pair_coeff      * * /home/lei/gap_training_addCracks_2022_01_25/doubSOAP_R5_2022_02_10_iter3/gap_Fe_test.xml   "Potential xml_label=GAP_2022_2_11_60_3_6_24_998" 26
#pair_coeff      * * /home/lei/gap_training_addCracks/doubSOAP_R5_2022_02_23_iter8/gap_Fe_test.xml   "Potential xml_label=GAP_2022_2_23_60_14_2_51_919" 26
#pair_coeff      * * /home/lei/gap_training_addCracks/turboSOAP_iter10/gap_Fe_test.xml   "Potential xml_label=GAP_2022_3_8_60_9_8_45_147" 26
#pair_coeff      * * /home/lei/gap_training_addCracks/turboSOAP_iter11/gap_Fe_test.xml   "Potential xml_label=GAP_2022_3_8_60_14_22_10_147" 26
#pair_coeff      * * /home/lei/gap_training_addCracks/doubSOAP_R5_2022_03_08_iter11/gap_Fe_test.xml   "Potential xml_label=GAP_2022_3_8_60_13_19_13_884" 26
#pair_coeff      * * /home/lei/gap_training_addCracks/turboSOAP_iter11_2/gap_Fe_test.xml   "Potential xml_label=GAP_2022_3_9_60_20_54_41_133" 26
#pair_coeff      * * /home/lei/gap_training_addCracks/turboSOAP_iter11/gap_Fe_test.xml   "Potential xml_label=GAP_2022_3_10_60_5_9_4_798" 26
#pair_coeff      * * /home/lei/gap_training_addCracks/turboSOAP_iter11_basis10/gap_Fe_test.xml   "Potential xml_label=GAP_2022_3_10_60_10_51_48_731" 26
#pair_coeff      * * /home/lei/gap_training_addCracks/doubleturboSOAP_iter11/gap_Fe_test.xml   "Potential xml_label=GAP_2022_3_9_60_23_12_29_37" 26
#pair_coeff      * * /home/lei/gap_training_addCracks/turboSOAP_iter11_compressfile/gap_Fe_test.xml   "Potential xml_label=GAP_2022_3_10_60_11_56_19_400" 26
#pair_coeff      * * /home/lei/gap_snellius/doubleturboSOAP_iter11_basis8/gap_Fe_test.xml   "Potential xml_label=GAP_2022_3_10_60_18_34_37_91" 26
#pair_coeff      * * /home/lei/gap_snellius/doubleturboSOAP_iter0_basis8/gap_Fe_test.xml "Potential xml_label=GAP_2022_3_11_60_22_7_9_623" 26
#pair_coeff      * * /home/lei/gap_snellius/doubleturboSOAP_iter0_hcp_basis8/gap_Fe_test.xml "Potential xml_label=GAP_2022_3_28_120_15_22_12_14" 26
#pair_coeff      * * /home/lei/gap_snellius/final/gap_Fe_test.xml "Potential xml_label=GAP_2022_5_28_120_3_13_35_983" 26
#---------------------------------------------

#---------------------ADP---------------------
# pair_style adp
# pair_coeff * * /home/lei/crackTip_ADP/Fe_nmFe.2021.adp.alloy Fe
#---------------------------------------------
neighbor        2.0 bin
neigh_modify    every 1 delay 0 check yes

#-------Define atom mass (no needed for moelcular statics) ------------
mass            1 55.845

#-------Compute--------------------------------------------------------
compute 	eng all pe/atom
compute 	new all temp
compute 	csym all centro/atom bcc
compute 	poten all pe
compute 	stress all stress/atom NULL

#------Relaxation ------------------------------------------------------
thermo          100
thermo_style    custom step pe lx ly lz pxx pyy pzz pxy pxz pyz press

min_style       cg
minimize        1e-30 10e-12 100000000 1000000000
Neighbor list info ...
  update every 1 steps, delay 0 steps, check yes
  max neighbors/atom: 2000, page size: 100000
  master list distance cutoff = 8.5
  ghost atom cutoff = 8.5
  binsize = 4.25, bins = 1 1 1
  2 neighbor lists, perpetual/occasional/extra = 1 1 0
  (1) pair quip, perpetual
      attributes: full, newton on
      pair build: full/bin/atomonly
      stencil: full/bin/3d
      bin: standard
  (2) compute centro/atom, occasional, copy from (1)
      attributes: full, newton on
      pair build: copy
      stencil: none
      bin: none
WARNING: Proc sub-domain size < neighbor skin, could lead to lost atoms (../domain.cpp:970)
Per MPI rank memory allocation (min/avg/max) = 5.076 | 5.077 | 5.079 Mbytes
   Step         PotEng           Lx             Ly             Lz            Pxx            Pyy            Pzz            Pxy            Pxz            Pyz           Press     
         0   1.8355059      2.8006667      2.8006667      2.8006667      462068.64      462068.64      462068.64     -3.4001009e-12  4.3017998e-12  1.3917109e-12  462068.64    
       100   1.2801086      2.8006667      2.8006667      2.8006667      358363.6       492394.36      492394.36     -8.9596659e-05 -9.6179376e-05  0.00015187499  447717.44    
       150   1.2801086      2.8006667      2.8006667      2.8006667      358363.6       492394.36      492394.36     -0.00010251247 -6.9658116e-05 -0.00012164787  447717.44    
Loop time of 1.61698 on 4 procs for 150 steps with 2 atoms

99.6% CPU use with 4 MPI tasks x no OpenMP threads

Minimization stats:
  Stopping criterion = linesearch alpha is zero
  Energy initial, next-to-last, final = 
      1.83550585969439    1.2801085997161    1.2801085997161
  Force two-norm initial, final = 8.6455212e-16 3.8115332e-10
  Force max component initial, final = 4.7184479e-16 1.97163e-10
  Final line search alpha, max atom move = 0.5 9.8581498e-11
  Iterations, force evaluations = 150 294

MPI task timing breakdown:
Section |  min time  |  avg time  |  max time  |%varavg| %total
---------------------------------------------------------------
Pair    | 0.0010872  | 0.8016     | 1.6033     |  89.4 | 49.57
Neigh   | 0          | 0          | 0          |   0.0 |  0.00
Comm    | 0.011652   | 0.81328    | 1.6138     |  88.8 | 50.30
Output  | 1.6671e-05 | 1.9363e-05 | 2.7241e-05 |   0.0 |  0.00
Modify  | 0          | 0          | 0          |   0.0 |  0.00
Other   |            | 0.002085   |            |       |  0.13

Nlocal:            0.5 ave           1 max           0 min
Histogram: 2 0 0 0 0 0 0 0 0 2
Nghost:          734.5 ave         735 max         734 min
Histogram: 2 0 0 0 0 0 0 0 0 2
Neighs:              0 ave           0 max           0 min
Histogram: 4 0 0 0 0 0 0 0 0 0
FullNghs:          129 ave         258 max           0 min
Histogram: 2 0 0 0 0 0 0 0 0 2

Total # of neighbors = 516
Ave neighs/atom = 258
Neighbor list builds = 0
Dangerous builds = 0
#-----Calculate the lattice parameter-----------------------------------
variable        tmp equal "lx"
variable        LX equal ${tmp}
variable        LX equal 2.80066666666667
variable        tmp equal "ly"
variable        LY equal ${tmp}
variable        LY equal 2.80066666666667
variable        tmp equal "lz"
variable        LZ equal ${tmp}
variable        LZ equal 2.80066666666667
variable        tmp equal "atoms"
variable        N equal ${tmp}
variable        N equal 2
variable        V equal (${LX}*${LY}*${LZ})
variable        V equal (2.80066666666667*${LY}*${LZ})
variable        V equal (2.80066666666667*2.80066666666667*${LZ})
variable        V equal (2.80066666666667*2.80066666666667*2.80066666666667)
variable        tmp equal "pe"
variable        pe0 equal ${tmp}
variable        pe0 equal 1.2801085997161

variable        teng equal ${pe0}/${N}
variable        teng equal 1.2801085997161/${N}
variable        teng equal 1.2801085997161/2
variable        vol  equal ${V}/${N}
variable        vol  equal 21.9676837336297/${N}
variable        vol  equal 21.9676837336297/2
#-----compute
print           "${vol} ${teng}" append ./volume.dat
10.9838418668148 0.64005429985805

#-----jump to next loop
next            i
jump            in.eos loop_start

variable        i loop 1 30
variable        latparam equal 2.834-0.05+(0.1/30)*${i}
variable        latparam equal 2.834-0.05+(0.1/30)*6

clear
units           metal
dimension       3
boundary        p p p
atom_style      atomic
atom_modify     map yes

#-------Define geometry  (2d X 2d) -------------------------------------------------
lattice         bcc ${latparam} orient x 1 0 0 orient y 0 1 0 orient z 0 0 1
lattice         bcc 2.804 orient x 1 0 0 orient y 0 1 0 orient z 0 0 1
Lattice spacing in x,y,z = 2.804 2.804 2.804
region          box block 0 1 0 1 0 1 units lattice
create_box      1 box
Created orthogonal box = (0 0 0) to (2.804 2.804 2.804)
  1 by 2 by 2 MPI processor grid
create_atoms    1 box
Created 2 atoms
  using lattice units in orthogonal box = (0 0 0) to (2.804 2.804 2.804)
  create_atoms CPU = 0.000 seconds

#-------Define interatomic potential-----------------------------------
include         ../potential.in
#pair_style      aenet
#pair_coeff      * * v-1 Fe 15tw-15tw.nn Fe
#----------------------NEUip
#pair_style  pace
#pair_coeff * * /scratch-shared/zhanglei1/ace_julia_training_slovers/N4.D14_rrqr/Fe_ace_N4_D14_R5.yace Fe
#pair_coeff  * * /data/lei/train_ace_2021_12_08/training_ace_iron_2022_08_12_v2/interim_potential_0.yace Fe
#pair_coeff  * * /data/lei/train_ace_2021_12_08/training_ace_iron_2022_08_12_v3_iter2000/interim_potential_0.yace Fe
#pair_coeff  * * /data/lei/train_ace_2021_12_08/training_ace_iron_2022_08_16/interim_potential_0.yace Fe
#pair_coeff  * * /data/lei/ace_iron/ace_Cas_suggested/Fe_ace_N3_D10_R5.yace Fe
#pair_coeff  * * /data/lei/ace_iron/ace_Cas_suggested_updated_1/Fe_ace_N3_D10_R5.yace Fe
#pair_coeff  * * /data/lei/ace_iron/ace_tuning_weights/Fe_ace_N3_D10_R5.yace Fe
#pair_coeff  * * /data/lei/ace_iron/ace_tuning_weights/Fe_ace_N3_D16_R5.yace Fe
#pair_coeff  * * /data/lei/ace_iron/ace_tuning_weights/Fe_ace_N4_D12_R5.yace Fe
#pair_coeff  * * /home/lei/ACEproject/ace_models/Fe_ace_N4_D18_R5.yace Fe
#pair_coeff  * * /home/lei/ACEproject/ace_models/Fe_ace_N3_D18_R5.yace Fe
#pair_coeff  * * /data/lei/train_ace_2021_12_08/training_ace_iron_2022_08_12_v3_iter2000/output_potential.yace Fe
# Addition
#newton  off

#pair_style	allegro
#pair_coeff	* * /home/zhanglei1/automatic_workflow_IAP_v1_2021_12_01/allegro-single-deployed_2022_09_22/allegro-single-deployed.pth Fe

# ---------------------GAP--------------------
pair_style      quip
pair_coeff      * * /scratch-shared/zhanglei1/GAP_training_OgataDBs/M4700_l8n8_R6.5_noIso/gap_Fe_test.xml "Potential xml_label=GAP_2022_10_11_120_15_58_18_226" 26
#pair_coeff      * * /scratch-shared/zhanglei1/GAP_training/M3000_l6n6/gap_Fe_test.xml "Potential xml_label=GAP_2022_10_3_120_16_55_34_368" 26
#pair_coeff      * * /home/lei/gap_training/l_6_n_12_allNewData/gap_Fe_test.xml "Potential xml_label=GAP_2021_12_1_60_0_17_25_709" 26
#pair_coeff      * * /home/lei/gap_training_2021_12_13/l_6_n_12_allNewData_turboSOAP/gap_Fe_test.xml "Potential xml_label=GAP_2021_12_12_60_17_6_15_829" 26 # TurboSOAP descriptor
#pair_coeff      * * /home/lei/gap_training_2021_12_13/l_6_n_12_allNewData_doubleSOAP/gap_Fe_test.xml "Potential xml_label=GAP_2021_12_14_60_8_16_28_553" 26
#pair_coeff      * * /home/lei/gap_training_2021_12_13/l_6_n_12_newdata_2021_12_16/gap_Fe_test.xml "Potential xml_label=GAP_2021_12_17_60_2_59_46_132" 26
#pair_coeff      * * /home/lei/gap_training_2021_12_13/l_6_n_12_newdata_doubleSOAP_2021_12_17/gap_Fe_test.xml   "Potential xml_label=GAP_2021_12_17_60_21_56_31_840" 26
#pair_coeff      * * /data/lei/gap_training_2021_12_13/l_6_n_12_newdata_doubleSOAP_2021_12_21/gap_Fe_test.xml   "Potential xml_label=GAP_2021_12_21_60_14_55_52_923" 26
#pair_coeff      * * /home/lei/gap_training_2021_12_13/l_6_n_12_newdata_doubleSOAP_Rcut6_2021_12_21/gap_Fe_test.xml   "Potential xml_label=GAP_2021_12_21_60_22_39_47_189" 26
#pair_coeff      * * /data/lei/gap_training_addCracks_2022_01_25/doubSOAP_R5_2022_01_25/gap_Fe_test.xml   "Potential xml_label=GAP_2022_1_26_60_7_10_9_751" 26

#pair_coeff      * * /home/p301616/gap_trainedOn_nieuwpoort/doubSOAP_R5_2022_01_28/gap_Fe_test.xml   "Potential xml_label=GAP_2022_1_29_60_3_44_50_986" 26

#pair_coeff      * * /home/lei/gap_training_addCracks_2022_01_25/doubSOAP_R5_2022_02_10_iter3/gap_Fe_test.xml   "Potential xml_label=GAP_2022_2_11_60_3_6_24_998" 26
#pair_coeff      * * /home/lei/gap_training_addCracks/doubSOAP_R5_2022_02_23_iter8/gap_Fe_test.xml   "Potential xml_label=GAP_2022_2_23_60_14_2_51_919" 26
#pair_coeff      * * /home/lei/gap_training_addCracks/turboSOAP_iter10/gap_Fe_test.xml   "Potential xml_label=GAP_2022_3_8_60_9_8_45_147" 26
#pair_coeff      * * /home/lei/gap_training_addCracks/turboSOAP_iter11/gap_Fe_test.xml   "Potential xml_label=GAP_2022_3_8_60_14_22_10_147" 26
#pair_coeff      * * /home/lei/gap_training_addCracks/doubSOAP_R5_2022_03_08_iter11/gap_Fe_test.xml   "Potential xml_label=GAP_2022_3_8_60_13_19_13_884" 26
#pair_coeff      * * /home/lei/gap_training_addCracks/turboSOAP_iter11_2/gap_Fe_test.xml   "Potential xml_label=GAP_2022_3_9_60_20_54_41_133" 26
#pair_coeff      * * /home/lei/gap_training_addCracks/turboSOAP_iter11/gap_Fe_test.xml   "Potential xml_label=GAP_2022_3_10_60_5_9_4_798" 26
#pair_coeff      * * /home/lei/gap_training_addCracks/turboSOAP_iter11_basis10/gap_Fe_test.xml   "Potential xml_label=GAP_2022_3_10_60_10_51_48_731" 26
#pair_coeff      * * /home/lei/gap_training_addCracks/doubleturboSOAP_iter11/gap_Fe_test.xml   "Potential xml_label=GAP_2022_3_9_60_23_12_29_37" 26
#pair_coeff      * * /home/lei/gap_training_addCracks/turboSOAP_iter11_compressfile/gap_Fe_test.xml   "Potential xml_label=GAP_2022_3_10_60_11_56_19_400" 26
#pair_coeff      * * /home/lei/gap_snellius/doubleturboSOAP_iter11_basis8/gap_Fe_test.xml   "Potential xml_label=GAP_2022_3_10_60_18_34_37_91" 26
#pair_coeff      * * /home/lei/gap_snellius/doubleturboSOAP_iter0_basis8/gap_Fe_test.xml "Potential xml_label=GAP_2022_3_11_60_22_7_9_623" 26
#pair_coeff      * * /home/lei/gap_snellius/doubleturboSOAP_iter0_hcp_basis8/gap_Fe_test.xml "Potential xml_label=GAP_2022_3_28_120_15_22_12_14" 26
#pair_coeff      * * /home/lei/gap_snellius/final/gap_Fe_test.xml "Potential xml_label=GAP_2022_5_28_120_3_13_35_983" 26
#---------------------------------------------

#---------------------ADP---------------------
# pair_style adp
# pair_coeff * * /home/lei/crackTip_ADP/Fe_nmFe.2021.adp.alloy Fe
#---------------------------------------------
neighbor        2.0 bin
neigh_modify    every 1 delay 0 check yes

#-------Define atom mass (no needed for moelcular statics) ------------
mass            1 55.845

#-------Compute--------------------------------------------------------
compute 	eng all pe/atom
compute 	new all temp
compute 	csym all centro/atom bcc
compute 	poten all pe
compute 	stress all stress/atom NULL

#------Relaxation ------------------------------------------------------
thermo          100
thermo_style    custom step pe lx ly lz pxx pyy pzz pxy pxz pyz press

min_style       cg
minimize        1e-30 10e-12 100000000 1000000000
Neighbor list info ...
  update every 1 steps, delay 0 steps, check yes
  max neighbors/atom: 2000, page size: 100000
  master list distance cutoff = 8.5
  ghost atom cutoff = 8.5
  binsize = 4.25, bins = 1 1 1
  2 neighbor lists, perpetual/occasional/extra = 1 1 0
  (1) pair quip, perpetual
      attributes: full, newton on
      pair build: full/bin/atomonly
      stencil: full/bin/3d
      bin: standard
  (2) compute centro/atom, occasional, copy from (1)
      attributes: full, newton on
      pair build: copy
      stencil: none
      bin: none
WARNING: Proc sub-domain size < neighbor skin, could lead to lost atoms (../domain.cpp:970)
Per MPI rank memory allocation (min/avg/max) = 5.076 | 5.077 | 5.079 Mbytes
   Step         PotEng           Lx             Ly             Lz            Pxx            Pyy            Pzz            Pxy            Pxz            Pyz           Press     
         0   1.8130203      2.804          2.804          2.804          455424.84      455424.84      455424.84     -2.0059629e-06 -2.0059597e-06 -2.005991e-06   455424.84    
         1   1.8130203      2.804          2.804          2.804          455424.84      455424.84      455424.84     -2.0059629e-06 -2.0059597e-06 -2.005991e-06   455424.84    
Loop time of 0.017131 on 4 procs for 1 steps with 2 atoms

99.6% CPU use with 4 MPI tasks x no OpenMP threads

Minimization stats:
  Stopping criterion = energy tolerance
  Energy initial, next-to-last, final = 
      1.81302030159702   1.81302030159702   1.81302030159702
  Force two-norm initial, final = 2.7494887e-13 2.7494887e-13
  Force max component initial, final = 1.1318756e-13 1.1318756e-13
  Final line search alpha, max atom move = 1 1.1318756e-13
  Iterations, force evaluations = 1 2

MPI task timing breakdown:
Section |  min time  |  avg time  |  max time  |%varavg| %total
---------------------------------------------------------------
Pair    | 1.607e-05  | 0.0084465  | 0.016966   |   9.2 | 49.31
Neigh   | 0          | 0          | 0          |   0.0 |  0.00
Comm    | 0.00012342 | 0.0086418  | 0.017072   |   9.1 | 50.45
Output  | 0          | 0          | 0          |   0.0 |  0.00
Modify  | 0          | 0          | 0          |   0.0 |  0.00
Other   |            | 4.266e-05  |            |       |  0.25

Nlocal:            0.5 ave           1 max           0 min
Histogram: 2 0 0 0 0 0 0 0 0 2
Nghost:          734.5 ave         735 max         734 min
Histogram: 2 0 0 0 0 0 0 0 0 2
Neighs:              0 ave           0 max           0 min
Histogram: 4 0 0 0 0 0 0 0 0 0
FullNghs:          129 ave         258 max           0 min
Histogram: 2 0 0 0 0 0 0 0 0 2

Total # of neighbors = 516
Ave neighs/atom = 258
Neighbor list builds = 0
Dangerous builds = 0
#-----Calculate the lattice parameter-----------------------------------
variable        tmp equal "lx"
variable        LX equal ${tmp}
variable        LX equal 2.804
variable        tmp equal "ly"
variable        LY equal ${tmp}
variable        LY equal 2.804
variable        tmp equal "lz"
variable        LZ equal ${tmp}
variable        LZ equal 2.804
variable        tmp equal "atoms"
variable        N equal ${tmp}
variable        N equal 2
variable        V equal (${LX}*${LY}*${LZ})
variable        V equal (2.804*${LY}*${LZ})
variable        V equal (2.804*2.804*${LZ})
variable        V equal (2.804*2.804*2.804)
variable        tmp equal "pe"
variable        pe0 equal ${tmp}
variable        pe0 equal 1.81302030159702

variable        teng equal ${pe0}/${N}
variable        teng equal 1.81302030159702/${N}
variable        teng equal 1.81302030159702/2
variable        vol  equal ${V}/${N}
variable        vol  equal 22.046214464/${N}
variable        vol  equal 22.046214464/2
#-----compute
print           "${vol} ${teng}" append ./volume.dat
11.023107232 0.90651015079851

#-----jump to next loop
next            i
jump            in.eos loop_start

variable        i loop 1 30
variable        latparam equal 2.834-0.05+(0.1/30)*${i}
variable        latparam equal 2.834-0.05+(0.1/30)*7

clear
units           metal
dimension       3
boundary        p p p
atom_style      atomic
atom_modify     map yes

#-------Define geometry  (2d X 2d) -------------------------------------------------
lattice         bcc ${latparam} orient x 1 0 0 orient y 0 1 0 orient z 0 0 1
lattice         bcc 2.80733333333333 orient x 1 0 0 orient y 0 1 0 orient z 0 0 1
Lattice spacing in x,y,z = 2.8073333 2.8073333 2.8073333
region          box block 0 1 0 1 0 1 units lattice
create_box      1 box
Created orthogonal box = (0 0 0) to (2.8073333 2.8073333 2.8073333)
  1 by 2 by 2 MPI processor grid
create_atoms    1 box
Created 2 atoms
  using lattice units in orthogonal box = (0 0 0) to (2.8073333 2.8073333 2.8073333)
  create_atoms CPU = 0.000 seconds

#-------Define interatomic potential-----------------------------------
include         ../potential.in
#pair_style      aenet
#pair_coeff      * * v-1 Fe 15tw-15tw.nn Fe
#----------------------NEUip
#pair_style  pace
#pair_coeff * * /scratch-shared/zhanglei1/ace_julia_training_slovers/N4.D14_rrqr/Fe_ace_N4_D14_R5.yace Fe
#pair_coeff  * * /data/lei/train_ace_2021_12_08/training_ace_iron_2022_08_12_v2/interim_potential_0.yace Fe
#pair_coeff  * * /data/lei/train_ace_2021_12_08/training_ace_iron_2022_08_12_v3_iter2000/interim_potential_0.yace Fe
#pair_coeff  * * /data/lei/train_ace_2021_12_08/training_ace_iron_2022_08_16/interim_potential_0.yace Fe
#pair_coeff  * * /data/lei/ace_iron/ace_Cas_suggested/Fe_ace_N3_D10_R5.yace Fe
#pair_coeff  * * /data/lei/ace_iron/ace_Cas_suggested_updated_1/Fe_ace_N3_D10_R5.yace Fe
#pair_coeff  * * /data/lei/ace_iron/ace_tuning_weights/Fe_ace_N3_D10_R5.yace Fe
#pair_coeff  * * /data/lei/ace_iron/ace_tuning_weights/Fe_ace_N3_D16_R5.yace Fe
#pair_coeff  * * /data/lei/ace_iron/ace_tuning_weights/Fe_ace_N4_D12_R5.yace Fe
#pair_coeff  * * /home/lei/ACEproject/ace_models/Fe_ace_N4_D18_R5.yace Fe
#pair_coeff  * * /home/lei/ACEproject/ace_models/Fe_ace_N3_D18_R5.yace Fe
#pair_coeff  * * /data/lei/train_ace_2021_12_08/training_ace_iron_2022_08_12_v3_iter2000/output_potential.yace Fe
# Addition
#newton  off

#pair_style	allegro
#pair_coeff	* * /home/zhanglei1/automatic_workflow_IAP_v1_2021_12_01/allegro-single-deployed_2022_09_22/allegro-single-deployed.pth Fe

# ---------------------GAP--------------------
pair_style      quip
pair_coeff      * * /scratch-shared/zhanglei1/GAP_training_OgataDBs/M4700_l8n8_R6.5_noIso/gap_Fe_test.xml "Potential xml_label=GAP_2022_10_11_120_15_58_18_226" 26
#pair_coeff      * * /scratch-shared/zhanglei1/GAP_training/M3000_l6n6/gap_Fe_test.xml "Potential xml_label=GAP_2022_10_3_120_16_55_34_368" 26
#pair_coeff      * * /home/lei/gap_training/l_6_n_12_allNewData/gap_Fe_test.xml "Potential xml_label=GAP_2021_12_1_60_0_17_25_709" 26
#pair_coeff      * * /home/lei/gap_training_2021_12_13/l_6_n_12_allNewData_turboSOAP/gap_Fe_test.xml "Potential xml_label=GAP_2021_12_12_60_17_6_15_829" 26 # TurboSOAP descriptor
#pair_coeff      * * /home/lei/gap_training_2021_12_13/l_6_n_12_allNewData_doubleSOAP/gap_Fe_test.xml "Potential xml_label=GAP_2021_12_14_60_8_16_28_553" 26
#pair_coeff      * * /home/lei/gap_training_2021_12_13/l_6_n_12_newdata_2021_12_16/gap_Fe_test.xml "Potential xml_label=GAP_2021_12_17_60_2_59_46_132" 26
#pair_coeff      * * /home/lei/gap_training_2021_12_13/l_6_n_12_newdata_doubleSOAP_2021_12_17/gap_Fe_test.xml   "Potential xml_label=GAP_2021_12_17_60_21_56_31_840" 26
#pair_coeff      * * /data/lei/gap_training_2021_12_13/l_6_n_12_newdata_doubleSOAP_2021_12_21/gap_Fe_test.xml   "Potential xml_label=GAP_2021_12_21_60_14_55_52_923" 26
#pair_coeff      * * /home/lei/gap_training_2021_12_13/l_6_n_12_newdata_doubleSOAP_Rcut6_2021_12_21/gap_Fe_test.xml   "Potential xml_label=GAP_2021_12_21_60_22_39_47_189" 26
#pair_coeff      * * /data/lei/gap_training_addCracks_2022_01_25/doubSOAP_R5_2022_01_25/gap_Fe_test.xml   "Potential xml_label=GAP_2022_1_26_60_7_10_9_751" 26

#pair_coeff      * * /home/p301616/gap_trainedOn_nieuwpoort/doubSOAP_R5_2022_01_28/gap_Fe_test.xml   "Potential xml_label=GAP_2022_1_29_60_3_44_50_986" 26

#pair_coeff      * * /home/lei/gap_training_addCracks_2022_01_25/doubSOAP_R5_2022_02_10_iter3/gap_Fe_test.xml   "Potential xml_label=GAP_2022_2_11_60_3_6_24_998" 26
#pair_coeff      * * /home/lei/gap_training_addCracks/doubSOAP_R5_2022_02_23_iter8/gap_Fe_test.xml   "Potential xml_label=GAP_2022_2_23_60_14_2_51_919" 26
#pair_coeff      * * /home/lei/gap_training_addCracks/turboSOAP_iter10/gap_Fe_test.xml   "Potential xml_label=GAP_2022_3_8_60_9_8_45_147" 26
#pair_coeff      * * /home/lei/gap_training_addCracks/turboSOAP_iter11/gap_Fe_test.xml   "Potential xml_label=GAP_2022_3_8_60_14_22_10_147" 26
#pair_coeff      * * /home/lei/gap_training_addCracks/doubSOAP_R5_2022_03_08_iter11/gap_Fe_test.xml   "Potential xml_label=GAP_2022_3_8_60_13_19_13_884" 26
#pair_coeff      * * /home/lei/gap_training_addCracks/turboSOAP_iter11_2/gap_Fe_test.xml   "Potential xml_label=GAP_2022_3_9_60_20_54_41_133" 26
#pair_coeff      * * /home/lei/gap_training_addCracks/turboSOAP_iter11/gap_Fe_test.xml   "Potential xml_label=GAP_2022_3_10_60_5_9_4_798" 26
#pair_coeff      * * /home/lei/gap_training_addCracks/turboSOAP_iter11_basis10/gap_Fe_test.xml   "Potential xml_label=GAP_2022_3_10_60_10_51_48_731" 26
#pair_coeff      * * /home/lei/gap_training_addCracks/doubleturboSOAP_iter11/gap_Fe_test.xml   "Potential xml_label=GAP_2022_3_9_60_23_12_29_37" 26
#pair_coeff      * * /home/lei/gap_training_addCracks/turboSOAP_iter11_compressfile/gap_Fe_test.xml   "Potential xml_label=GAP_2022_3_10_60_11_56_19_400" 26
#pair_coeff      * * /home/lei/gap_snellius/doubleturboSOAP_iter11_basis8/gap_Fe_test.xml   "Potential xml_label=GAP_2022_3_10_60_18_34_37_91" 26
#pair_coeff      * * /home/lei/gap_snellius/doubleturboSOAP_iter0_basis8/gap_Fe_test.xml "Potential xml_label=GAP_2022_3_11_60_22_7_9_623" 26
#pair_coeff      * * /home/lei/gap_snellius/doubleturboSOAP_iter0_hcp_basis8/gap_Fe_test.xml "Potential xml_label=GAP_2022_3_28_120_15_22_12_14" 26
#pair_coeff      * * /home/lei/gap_snellius/final/gap_Fe_test.xml "Potential xml_label=GAP_2022_5_28_120_3_13_35_983" 26
#---------------------------------------------

#---------------------ADP---------------------
# pair_style adp
# pair_coeff * * /home/lei/crackTip_ADP/Fe_nmFe.2021.adp.alloy Fe
#---------------------------------------------
neighbor        2.0 bin
neigh_modify    every 1 delay 0 check yes

#-------Define atom mass (no needed for moelcular statics) ------------
mass            1 55.845

#-------Compute--------------------------------------------------------
compute 	eng all pe/atom
compute 	new all temp
compute 	csym all centro/atom bcc
compute 	poten all pe
compute 	stress all stress/atom NULL

#------Relaxation ------------------------------------------------------
thermo          100
thermo_style    custom step pe lx ly lz pxx pyy pzz pxy pxz pyz press

min_style       cg
minimize        1e-30 10e-12 100000000 1000000000
Neighbor list info ...
  update every 1 steps, delay 0 steps, check yes
  max neighbors/atom: 2000, page size: 100000
  master list distance cutoff = 8.5
  ghost atom cutoff = 8.5
  binsize = 4.25, bins = 1 1 1
  2 neighbor lists, perpetual/occasional/extra = 1 1 0
  (1) pair quip, perpetual
      attributes: full, newton on
      pair build: full/bin/atomonly
      stencil: full/bin/3d
      bin: standard
  (2) compute centro/atom, occasional, copy from (1)
      attributes: full, newton on
      pair build: copy
      stencil: none
      bin: none
WARNING: Proc sub-domain size < neighbor skin, could lead to lost atoms (../domain.cpp:970)
Per MPI rank memory allocation (min/avg/max) = 5.076 | 5.077 | 5.079 Mbytes
   Step         PotEng           Lx             Ly             Lz            Pxx            Pyy            Pzz            Pxy            Pxz            Pyz           Press     
         0   1.7908086      2.8073333      2.8073333      2.8073333      448740.33      448740.33      448740.33      1.0605194e-06 -8.8625053e-08 -8.861584e-08   448740.33    
       100   1.2369914      2.8073333      2.8073333      2.8073333      474810.27      342606.34      474810.27      8.3056626e-05  0.00029468883  0.00019415638  430742.3     
       200   1.2369914      2.8073333      2.8073333      2.8073333      474810.27      342606.34      474810.27      7.6703709e-06 -0.00018683598 -0.00021663607  430742.3     
       300   1.2369914      2.8073333      2.8073333      2.8073333      474810.27      342606.34      474810.27     -7.7973432e-06  0.00023042799 -0.0001415832   430742.3     
       343   1.2369914      2.8073333      2.8073333      2.8073333      474810.27      342606.34      474810.27      5.6621135e-05 -1.1395798e-06  0.00032330365  430742.29    
Loop time of 3.71268 on 4 procs for 343 steps with 2 atoms

99.6% CPU use with 4 MPI tasks x no OpenMP threads

Minimization stats:
  Stopping criterion = linesearch alpha is zero
  Energy initial, next-to-last, final = 
      1.79080863613968   1.23699142807746   1.23699142807746
  Force two-norm initial, final = 1.7154484e-13 3.6462587e-10
  Force max component initial, final = 7.1589366e-14 2.3603448e-10
  Final line search alpha, max atom move = 0.5 1.1801724e-10
  Iterations, force evaluations = 343 679

MPI task timing breakdown:
Section |  min time  |  avg time  |  max time  |%varavg| %total
---------------------------------------------------------------
Pair    | 0.0024916  | 1.8375     | 3.6817     | 135.4 | 49.49
Neigh   | 0          | 0          | 0          |   0.0 |  0.00
Comm    | 0.026149   | 1.8703     | 3.7053     | 134.2 | 50.38
Output  | 6.0402e-05 | 6.8262e-05 | 9.0509e-05 |   0.0 |  0.00
Modify  | 0          | 0          | 0          |   0.0 |  0.00
Other   |            | 0.004776   |            |       |  0.13

Nlocal:            0.5 ave           1 max           0 min
Histogram: 2 0 0 0 0 0 0 0 0 2
Nghost:          734.5 ave         735 max         734 min
Histogram: 2 0 0 0 0 0 0 0 0 2
Neighs:              0 ave           0 max           0 min
Histogram: 4 0 0 0 0 0 0 0 0 0
FullNghs:          129 ave         258 max           0 min
Histogram: 2 0 0 0 0 0 0 0 0 2

Total # of neighbors = 516
Ave neighs/atom = 258
Neighbor list builds = 0
Dangerous builds = 0
#-----Calculate the lattice parameter-----------------------------------
variable        tmp equal "lx"
variable        LX equal ${tmp}
variable        LX equal 2.80733333333333
variable        tmp equal "ly"
variable        LY equal ${tmp}
variable        LY equal 2.80733333333333
variable        tmp equal "lz"
variable        LZ equal ${tmp}
variable        LZ equal 2.80733333333333
variable        tmp equal "atoms"
variable        N equal ${tmp}
variable        N equal 2
variable        V equal (${LX}*${LY}*${LZ})
variable        V equal (2.80733333333333*${LY}*${LZ})
variable        V equal (2.80733333333333*2.80733333333333*${LZ})
variable        V equal (2.80733333333333*2.80733333333333*2.80733333333333)
variable        tmp equal "pe"
variable        pe0 equal ${tmp}
variable        pe0 equal 1.23699142807746

variable        teng equal ${pe0}/${N}
variable        teng equal 1.23699142807746/${N}
variable        teng equal 1.23699142807746/2
variable        vol  equal ${V}/${N}
variable        vol  equal 22.1249321277036/${N}
variable        vol  equal 22.1249321277036/2
#-----compute
print           "${vol} ${teng}" append ./volume.dat
11.0624660638518 0.61849571403873

#-----jump to next loop
next            i
jump            in.eos loop_start

variable        i loop 1 30
variable        latparam equal 2.834-0.05+(0.1/30)*${i}
variable        latparam equal 2.834-0.05+(0.1/30)*8

clear
units           metal
dimension       3
boundary        p p p
atom_style      atomic
atom_modify     map yes

#-------Define geometry  (2d X 2d) -------------------------------------------------
lattice         bcc ${latparam} orient x 1 0 0 orient y 0 1 0 orient z 0 0 1
lattice         bcc 2.81066666666667 orient x 1 0 0 orient y 0 1 0 orient z 0 0 1
Lattice spacing in x,y,z = 2.8106667 2.8106667 2.8106667
region          box block 0 1 0 1 0 1 units lattice
create_box      1 box
Created orthogonal box = (0 0 0) to (2.8106667 2.8106667 2.8106667)
  1 by 2 by 2 MPI processor grid
create_atoms    1 box
Created 2 atoms
  using lattice units in orthogonal box = (0 0 0) to (2.8106667 2.8106667 2.8106667)
  create_atoms CPU = 0.000 seconds

#-------Define interatomic potential-----------------------------------
include         ../potential.in
#pair_style      aenet
#pair_coeff      * * v-1 Fe 15tw-15tw.nn Fe
#----------------------NEUip
#pair_style  pace
#pair_coeff * * /scratch-shared/zhanglei1/ace_julia_training_slovers/N4.D14_rrqr/Fe_ace_N4_D14_R5.yace Fe
#pair_coeff  * * /data/lei/train_ace_2021_12_08/training_ace_iron_2022_08_12_v2/interim_potential_0.yace Fe
[...]
#pair_coeff	* * /home/zhanglei1/automatic_workflow_IAP_v1_2021_12_01/allegro-single-deployed_2022_09_22/allegro-single-deployed.pth Fe

# ---------------------GAP--------------------
pair_style      quip
pair_coeff      * * /scratch-shared/zhanglei1/GAP_training_OgataDBs/M4700_l8n8_R6.5_noIso/gap_Fe_test.xml "Potential xml_label=GAP_2022_10_11_120_15_58_18_226" 26
#pair_coeff      * * /scratch-shared/zhanglei1/GAP_training/M3000_l6n6/gap_Fe_test.xml "Potential xml_label=GAP_2022_10_3_120_16_55_34_368" 26
#pair_coeff      * * /home/lei/gap_training/l_6_n_12_allNewData/gap_Fe_test.xml "Potential xml_label=GAP_2021_12_1_60_0_17_25_709" 26
#pair_coeff      * * /home/lei/gap_training_2021_12_13/l_6_n_12_allNewData_turboSOAP/gap_Fe_test.xml "Potential xml_label=GAP_2021_12_12_60_17_6_15_829" 26 # TurboSOAP descriptor
#pair_coeff      * * /home/lei/gap_training_2021_12_13/l_6_n_12_allNewData_doubleSOAP/gap_Fe_test.xml "Potential xml_label=GAP_2021_12_14_60_8_16_28_553" 26
#pair_coeff      * * /home/lei/gap_training_2021_12_13/l_6_n_12_newdata_2021_12_16/gap_Fe_test.xml "Potential xml_label=GAP_2021_12_17_60_2_59_46_132" 26
#pair_coeff      * * /home/lei/gap_training_2021_12_13/l_6_n_12_newdata_doubleSOAP_2021_12_17/gap_Fe_test.xml   "Potential xml_label=GAP_2021_12_17_60_21_56_31_840" 26
#pair_coeff      * * /data/lei/gap_training_2021_12_13/l_6_n_12_newdata_doubleSOAP_2021_12_21/gap_Fe_test.xml   "Potential xml_label=GAP_2021_12_21_60_14_55_52_923" 26
#pair_coeff      * * /home/lei/gap_training_2021_12_13/l_6_n_12_newdata_doubleSOAP_Rcut6_2021_12_21/gap_Fe_test.xml   "Potential xml_label=GAP_2021_12_21_60_22_39_47_189" 26
#pair_coeff      * * /data/lei/gap_training_addCracks_2022_01_25/doubSOAP_R5_2022_01_25/gap_Fe_test.xml   "Potential xml_label=GAP_2022_1_26_60_7_10_9_751" 26

#pair_coeff      * * /home/p301616/gap_trainedOn_nieuwpoort/doubSOAP_R5_2022_01_28/gap_Fe_test.xml   "Potential xml_label=GAP_2022_1_29_60_3_44_50_986" 26

#pair_coeff      * * /home/lei/gap_training_addCracks_2022_01_25/doubSOAP_R5_2022_02_10_iter3/gap_Fe_test.xml   "Potential xml_label=GAP_2022_2_11_60_3_6_24_998" 26
#pair_coeff      * * /home/lei/gap_training_addCracks/doubSOAP_R5_2022_02_23_iter8/gap_Fe_test.xml   "Potential xml_label=GAP_2022_2_23_60_14_2_51_919" 26
#pair_coeff      * * /home/lei/gap_training_addCracks/turboSOAP_iter10/gap_Fe_test.xml   "Potential xml_label=GAP_2022_3_8_60_9_8_45_147" 26
#pair_coeff      * * /home/lei/gap_training_addCracks/turboSOAP_iter11/gap_Fe_test.xml   "Potential xml_label=GAP_2022_3_8_60_14_22_10_147" 26
#pair_coeff      * * /home/lei/gap_training_addCracks/doubSOAP_R5_2022_03_08_iter11/gap_Fe_test.xml   "Potential xml_label=GAP_2022_3_8_60_13_19_13_884" 26
#pair_coeff      * * /home/lei/gap_training_addCracks/turboSOAP_iter11_2/gap_Fe_test.xml   "Potential xml_label=GAP_2022_3_9_60_20_54_41_133" 26
#pair_coeff      * * /home/lei/gap_training_addCracks/turboSOAP_iter11/gap_Fe_test.xml   "Potential xml_label=GAP_2022_3_10_60_5_9_4_798" 26
#pair_coeff      * * /home/lei/gap_training_addCracks/turboSOAP_iter11_basis10/gap_Fe_test.xml   "Potential xml_label=GAP_2022_3_10_60_10_51_48_731" 26
#pair_coeff      * * /home/lei/gap_training_addCracks/doubleturboSOAP_iter11/gap_Fe_test.xml   "Potential xml_label=GAP_2022_3_9_60_23_12_29_37" 26
#pair_coeff      * * /home/lei/gap_training_addCracks/turboSOAP_iter11_compressfile/gap_Fe_test.xml   "Potential xml_label=GAP_2022_3_10_60_11_56_19_400" 26
#pair_coeff      * * /home/lei/gap_snellius/doubleturboSOAP_iter11_basis8/gap_Fe_test.xml   "Potential xml_label=GAP_2022_3_10_60_18_34_37_91" 26
#pair_coeff      * * /home/lei/gap_snellius/doubleturboSOAP_iter0_basis8/gap_Fe_test.xml "Potential xml_label=GAP_2022_3_11_60_22_7_9_623" 26
#pair_coeff      * * /home/lei/gap_snellius/doubleturboSOAP_iter0_hcp_basis8/gap_Fe_test.xml "Potential xml_label=GAP_2022_3_28_120_15_22_12_14" 26
#pair_coeff      * * /home/lei/gap_snellius/final/gap_Fe_test.xml "Potential xml_label=GAP_2022_5_28_120_3_13_35_983" 26
#---------------------------------------------

#---------------------ADP---------------------
# pair_style adp
# pair_coeff * * /home/lei/crackTip_ADP/Fe_nmFe.2021.adp.alloy Fe
#---------------------------------------------
neighbor        2.0 bin
neigh_modify    every 1 delay 0 check yes

#-------Define atom mass (no needed for moelcular statics) ------------
mass            1 55.845

#-------Compute--------------------------------------------------------
compute 	eng all pe/atom
compute 	new all temp
compute 	csym all centro/atom bcc
compute 	poten all pe
compute 	stress all stress/atom NULL

#------Relaxation ------------------------------------------------------
thermo          100
thermo_style    custom step pe lx ly lz pxx pyy pzz pxy pxz pyz press

min_style       cg
minimize        1e-30 10e-12 100000000 1000000000
Neighbor list info ...
  update every 1 steps, delay 0 steps, check yes
  max neighbors/atom: 2000, page size: 100000
  master list distance cutoff = 8.5
  ghost atom cutoff = 8.5
  binsize = 4.25, bins = 1 1 1
  2 neighbor lists, perpetual/occasional/extra = 1 1 0
  (1) pair quip, perpetual
      attributes: full, newton on
      pair build: full/bin/atomonly
      stencil: full/bin/3d
      bin: standard
  (2) compute centro/atom, occasional, copy from (1)
      attributes: full, newton on
      pair build: copy
      stencil: none
      bin: none
WARNING: Proc sub-domain size < neighbor skin, could lead to lost atoms (../domain.cpp:970)
Per MPI rank memory allocation (min/avg/max) = 5.04 | 5.041 | 5.042 Mbytes
   Step         PotEng           Lx             Ly             Lz            Pxx            Pyy            Pzz            Pxy            Pxz            Pyz           Press     
         0   1.3676773      2.8806667      2.8806667      2.8806667      338812.87      338812.87      338812.87     -5.3483461e-12  3.2555155e-12  1.7440256e-11  338812.87    
         1   1.3676773      2.8806667      2.8806667      2.8806667      338812.87      338812.87      338812.87     -5.3483461e-12  3.2555155e-12  1.7440256e-11  338812.87    
Loop time of 0.0165209 on 4 procs for 1 steps with 2 atoms

99.6% CPU use with 4 MPI tasks x no OpenMP threads

Minimization stats:
  Stopping criterion = linesearch alpha is zero
  Energy initial, next-to-last, final = 
      1.36767731521863   1.36767731521863   1.36767731521863
  Force two-norm initial, final = 1.8701638e-15 1.8701638e-15
  Force max component initial, final = 1.3010426e-15 1.3010426e-15
  Final line search alpha, max atom move = 0.5 6.5052129e-16
  Iterations, force evaluations = 1 2

MPI task timing breakdown:
Section |  min time  |  avg time  |  max time  |%varavg| %total
---------------------------------------------------------------
Pair    | 1.1371e-05 | 0.0081861  | 0.016362   |   9.0 | 49.55
Neigh   | 0          | 0          | 0          |   0.0 |  0.00
Comm    | 0.00011374 | 0.0082904  | 0.016465   |   9.0 | 50.18
Output  | 0          | 0          | 0          |   0.0 |  0.00
Modify  | 0          | 0          | 0          |   0.0 |  0.00
Other   |            | 4.434e-05  |            |       |  0.27

Nlocal:            0.5 ave           1 max           0 min
Histogram: 2 0 0 0 0 0 0 0 0 2
Nghost:          467.5 ave         468 max         467 min
Histogram: 2 0 0 0 0 0 0 0 0 2
Neighs:              0 ave           0 max           0 min
Histogram: 4 0 0 0 0 0 0 0 0 0
FullNghs:           90 ave         180 max           0 min
Histogram: 2 0 0 0 0 0 0 0 0 2

Total # of neighbors = 360
Ave neighs/atom = 180
Neighbor list builds = 0
Dangerous builds = 0
#-----Calculate the lattice parameter-----------------------------------
variable        tmp equal "lx"
variable        LX equal ${tmp}
variable        LX equal 2.88066666666667
variable        tmp equal "ly"
variable        LY equal ${tmp}
variable        LY equal 2.88066666666667
variable        tmp equal "lz"
variable        LZ equal ${tmp}
variable        LZ equal 2.88066666666667
variable        tmp equal "atoms"
variable        N equal ${tmp}
variable        N equal 2
variable        V equal (${LX}*${LY}*${LZ})
variable        V equal (2.88066666666667*${LY}*${LZ})
variable        V equal (2.88066666666667*2.88066666666667*${LZ})
variable        V equal (2.88066666666667*2.88066666666667*2.88066666666667)
variable        tmp equal "pe"
variable        pe0 equal ${tmp}
variable        pe0 equal 1.36767731521863

variable        teng equal ${pe0}/${N}
variable        teng equal 1.36767731521863/${N}
variable        teng equal 1.36767731521863/2
variable        vol  equal ${V}/${N}
variable        vol  equal 23.9044646402964/${N}
variable        vol  equal 23.9044646402964/2
#-----compute
print           "${vol} ${teng}" append ./volume.dat
11.9522323201482 0.683838657609315

#-----jump to next loop
next            i
jump            in.eos loop_start

variable        i loop 1 30
variable        latparam equal 2.834-0.05+(0.1/30)*${i}
variable        latparam equal 2.834-0.05+(0.1/30)*30

clear
units           metal
dimension       3
boundary        p p p
atom_style      atomic
atom_modify     map yes

#-------Define geometry  (2d X 2d) -------------------------------------------------
lattice         bcc ${latparam} orient x 1 0 0 orient y 0 1 0 orient z 0 0 1
lattice         bcc 2.884 orient x 1 0 0 orient y 0 1 0 orient z 0 0 1
Lattice spacing in x,y,z = 2.884 2.884 2.884
region          box block 0 1 0 1 0 1 units lattice
create_box      1 box
Created orthogonal box = (0 0 0) to (2.884 2.884 2.884)
  1 by 2 by 2 MPI processor grid
create_atoms    1 box
Created 2 atoms
  using lattice units in orthogonal box = (0 0 0) to (2.884 2.884 2.884)
  create_atoms CPU = 0.000 seconds

#-------Define interatomic potential-----------------------------------
include         ../potential.in
#pair_style      aenet
#pair_coeff      * * v-1 Fe 15tw-15tw.nn Fe
#----------------------NEUip
#pair_style  pace
#pair_coeff * * /scratch-shared/zhanglei1/ace_julia_training_slovers/N4.D14_rrqr/Fe_ace_N4_D14_R5.yace Fe
#pair_coeff  * * /data/lei/train_ace_2021_12_08/training_ace_iron_2022_08_12_v2/interim_potential_0.yace Fe
#pair_coeff  * * /data/lei/train_ace_2021_12_08/training_ace_iron_2022_08_12_v3_iter2000/interim_potential_0.yace Fe
#pair_coeff  * * /data/lei/train_ace_2021_12_08/training_ace_iron_2022_08_16/interim_potential_0.yace Fe
#pair_coeff  * * /data/lei/ace_iron/ace_Cas_suggested/Fe_ace_N3_D10_R5.yace Fe
#pair_coeff  * * /data/lei/ace_iron/ace_Cas_suggested_updated_1/Fe_ace_N3_D10_R5.yace Fe
#pair_coeff  * * /data/lei/ace_iron/ace_tuning_weights/Fe_ace_N3_D10_R5.yace Fe
#pair_coeff  * * /data/lei/ace_iron/ace_tuning_weights/Fe_ace_N3_D16_R5.yace Fe
#pair_coeff  * * /data/lei/ace_iron/ace_tuning_weights/Fe_ace_N4_D12_R5.yace Fe
#pair_coeff  * * /home/lei/ACEproject/ace_models/Fe_ace_N4_D18_R5.yace Fe
#pair_coeff  * * /home/lei/ACEproject/ace_models/Fe_ace_N3_D18_R5.yace Fe
#pair_coeff  * * /data/lei/train_ace_2021_12_08/training_ace_iron_2022_08_12_v3_iter2000/output_potential.yace Fe
# Addition
#newton  off

#pair_style	allegro
#pair_coeff	* * /home/zhanglei1/automatic_workflow_IAP_v1_2021_12_01/allegro-single-deployed_2022_09_22/allegro-single-deployed.pth Fe

# ---------------------GAP--------------------
pair_style      quip
pair_coeff      * * /scratch-shared/zhanglei1/GAP_training_OgataDBs/M4700_l8n8_R6.5_noIso/gap_Fe_test.xml "Potential xml_label=GAP_2022_10_11_120_15_58_18_226" 26
#pair_coeff      * * /scratch-shared/zhanglei1/GAP_training/M3000_l6n6/gap_Fe_test.xml "Potential xml_label=GAP_2022_10_3_120_16_55_34_368" 26
#pair_coeff      * * /home/lei/gap_training/l_6_n_12_allNewData/gap_Fe_test.xml "Potential xml_label=GAP_2021_12_1_60_0_17_25_709" 26
#pair_coeff      * * /home/lei/gap_training_2021_12_13/l_6_n_12_allNewData_turboSOAP/gap_Fe_test.xml "Potential xml_label=GAP_2021_12_12_60_17_6_15_829" 26 # TurboSOAP descriptor
#pair_coeff      * * /home/lei/gap_training_2021_12_13/l_6_n_12_allNewData_doubleSOAP/gap_Fe_test.xml "Potential xml_label=GAP_2021_12_14_60_8_16_28_553" 26
#pair_coeff      * * /home/lei/gap_training_2021_12_13/l_6_n_12_newdata_2021_12_16/gap_Fe_test.xml "Potential xml_label=GAP_2021_12_17_60_2_59_46_132" 26
#pair_coeff      * * /home/lei/gap_training_2021_12_13/l_6_n_12_newdata_doubleSOAP_2021_12_17/gap_Fe_test.xml   "Potential xml_label=GAP_2021_12_17_60_21_56_31_840" 26
#pair_coeff      * * /data/lei/gap_training_2021_12_13/l_6_n_12_newdata_doubleSOAP_2021_12_21/gap_Fe_test.xml   "Potential xml_label=GAP_2021_12_21_60_14_55_52_923" 26
#pair_coeff      * * /home/lei/gap_training_2021_12_13/l_6_n_12_newdata_doubleSOAP_Rcut6_2021_12_21/gap_Fe_test.xml   "Potential xml_label=GAP_2021_12_21_60_22_39_47_189" 26
#pair_coeff      * * /data/lei/gap_training_addCracks_2022_01_25/doubSOAP_R5_2022_01_25/gap_Fe_test.xml   "Potential xml_label=GAP_2022_1_26_60_7_10_9_751" 26

#pair_coeff      * * /home/p301616/gap_trainedOn_nieuwpoort/doubSOAP_R5_2022_01_28/gap_Fe_test.xml   "Potential xml_label=GAP_2022_1_29_60_3_44_50_986" 26

#pair_coeff      * * /home/lei/gap_training_addCracks_2022_01_25/doubSOAP_R5_2022_02_10_iter3/gap_Fe_test.xml   "Potential xml_label=GAP_2022_2_11_60_3_6_24_998" 26
#pair_coeff      * * /home/lei/gap_training_addCracks/doubSOAP_R5_2022_02_23_iter8/gap_Fe_test.xml   "Potential xml_label=GAP_2022_2_23_60_14_2_51_919" 26
#pair_coeff      * * /home/lei/gap_training_addCracks/turboSOAP_iter10/gap_Fe_test.xml   "Potential xml_label=GAP_2022_3_8_60_9_8_45_147" 26
#pair_coeff      * * /home/lei/gap_training_addCracks/turboSOAP_iter11/gap_Fe_test.xml   "Potential xml_label=GAP_2022_3_8_60_14_22_10_147" 26
#pair_coeff      * * /home/lei/gap_training_addCracks/doubSOAP_R5_2022_03_08_iter11/gap_Fe_test.xml   "Potential xml_label=GAP_2022_3_8_60_13_19_13_884" 26
#pair_coeff      * * /home/lei/gap_training_addCracks/turboSOAP_iter11_2/gap_Fe_test.xml   "Potential xml_label=GAP_2022_3_9_60_20_54_41_133" 26
#pair_coeff      * * /home/lei/gap_training_addCracks/turboSOAP_iter11/gap_Fe_test.xml   "Potential xml_label=GAP_2022_3_10_60_5_9_4_798" 26
#pair_coeff      * * /home/lei/gap_training_addCracks/turboSOAP_iter11_basis10/gap_Fe_test.xml   "Potential xml_label=GAP_2022_3_10_60_10_51_48_731" 26
#pair_coeff      * * /home/lei/gap_training_addCracks/doubleturboSOAP_iter11/gap_Fe_test.xml   "Potential xml_label=GAP_2022_3_9_60_23_12_29_37" 26
#pair_coeff      * * /home/lei/gap_training_addCracks/turboSOAP_iter11_compressfile/gap_Fe_test.xml   "Potential xml_label=GAP_2022_3_10_60_11_56_19_400" 26
#pair_coeff      * * /home/lei/gap_snellius/doubleturboSOAP_iter11_basis8/gap_Fe_test.xml   "Potential xml_label=GAP_2022_3_10_60_18_34_37_91" 26
#pair_coeff      * * /home/lei/gap_snellius/doubleturboSOAP_iter0_basis8/gap_Fe_test.xml "Potential xml_label=GAP_2022_3_11_60_22_7_9_623" 26
#pair_coeff      * * /home/lei/gap_snellius/doubleturboSOAP_iter0_hcp_basis8/gap_Fe_test.xml "Potential xml_label=GAP_2022_3_28_120_15_22_12_14" 26
#pair_coeff      * * /home/lei/gap_snellius/final/gap_Fe_test.xml "Potential xml_label=GAP_2022_5_28_120_3_13_35_983" 26
#---------------------------------------------

#---------------------ADP---------------------
# pair_style adp
# pair_coeff * * /home/lei/crackTip_ADP/Fe_nmFe.2021.adp.alloy Fe
#---------------------------------------------
neighbor        2.0 bin
neigh_modify    every 1 delay 0 check yes

#-------Define atom mass (no needed for moelcular statics) ------------
mass            1 55.845

#-------Compute--------------------------------------------------------
compute 	eng all pe/atom
compute 	new all temp
compute 	csym all centro/atom bcc
compute 	poten all pe
compute 	stress all stress/atom NULL

#------Relaxation ------------------------------------------------------
thermo          100
thermo_style    custom step pe lx ly lz pxx pyy pzz pxy pxz pyz press

min_style       cg
minimize        1e-30 10e-12 100000000 1000000000
Neighbor list info ...
  update every 1 steps, delay 0 steps, check yes
  max neighbors/atom: 2000, page size: 100000
  master list distance cutoff = 8.5
  ghost atom cutoff = 8.5
  binsize = 4.25, bins = 1 1 1
  2 neighbor lists, perpetual/occasional/extra = 1 1 0
  (1) pair quip, perpetual
      attributes: full, newton on
      pair build: full/bin/atomonly
      stencil: full/bin/3d
      bin: standard
  (2) compute centro/atom, occasional, copy from (1)
      attributes: full, newton on
      pair build: copy
      stencil: none
      bin: none
WARNING: Proc sub-domain size < neighbor skin, could lead to lost atoms (../domain.cpp:970)
Per MPI rank memory allocation (min/avg/max) = 5.04 | 5.041 | 5.042 Mbytes
   Step         PotEng           Lx             Ly             Lz            Pxx            Pyy            Pzz            Pxy            Pxz            Pyz           Press     
         0   1.3500781      2.884          2.884          2.884          340179.87      340179.87      340179.87     -3.5010531e-05 -3.5010566e-05 -3.5010524e-05  340179.87    
         1   1.3500781      2.884          2.884          2.884          340179.87      340179.87      340179.87     -3.5010531e-05 -3.5010566e-05 -3.5010524e-05  340179.87    
Loop time of 0.0165648 on 4 procs for 1 steps with 2 atoms

99.6% CPU use with 4 MPI tasks x no OpenMP threads

Minimization stats:
  Stopping criterion = energy tolerance
  Energy initial, next-to-last, final = 
      1.35007812433549   1.35007812433549   1.35007812433549
  Force two-norm initial, final = 1.4446465e-13 1.4446465e-13
  Force max component initial, final = 5.9063865e-14 5.9063865e-14
  Final line search alpha, max atom move = 1 5.9063865e-14
  Iterations, force evaluations = 1 2

MPI task timing breakdown:
Section |  min time  |  avg time  |  max time  |%varavg| %total
---------------------------------------------------------------
Pair    | 1.1231e-05 | 0.0081931  | 0.016416   |   9.0 | 49.46
Neigh   | 0          | 0          | 0          |   0.0 |  0.00
Comm    | 0.00010674 | 0.0083296  | 0.016511   |   9.0 | 50.28
Output  | 0          | 0          | 0          |   0.0 |  0.00
Modify  | 0          | 0          | 0          |   0.0 |  0.00
Other   |            | 4.214e-05  |            |       |  0.25

Nlocal:            0.5 ave           1 max           0 min
Histogram: 2 0 0 0 0 0 0 0 0 2
Nghost:          467.5 ave         468 max         467 min
Histogram: 2 0 0 0 0 0 0 0 0 2
Neighs:              0 ave           0 max           0 min
Histogram: 4 0 0 0 0 0 0 0 0 0
FullNghs:           90 ave         180 max           0 min
Histogram: 2 0 0 0 0 0 0 0 0 2

Total # of neighbors = 360
Ave neighs/atom = 180
Neighbor list builds = 0
Dangerous builds = 0
#-----Calculate the lattice parameter-----------------------------------
variable        tmp equal "lx"
variable        LX equal ${tmp}
variable        LX equal 2.884
variable        tmp equal "ly"
variable        LY equal ${tmp}
variable        LY equal 2.884
variable        tmp equal "lz"
variable        LZ equal ${tmp}
variable        LZ equal 2.884
variable        tmp equal "atoms"
variable        N equal ${tmp}
variable        N equal 2
variable        V equal (${LX}*${LY}*${LZ})
variable        V equal (2.884*${LY}*${LZ})
variable        V equal (2.884*2.884*${LZ})
variable        V equal (2.884*2.884*2.884)
variable        tmp equal "pe"
variable        pe0 equal ${tmp}
variable        pe0 equal 1.35007812433549

variable        teng equal ${pe0}/${N}
variable        teng equal 1.35007812433549/${N}
variable        teng equal 1.35007812433549/2
variable        vol  equal ${V}/${N}
variable        vol  equal 23.987543104/${N}
variable        vol  equal 23.987543104/2
#-----compute
print           "${vol} ${teng}" append ./volume.dat
11.993771552 0.675039062167745

#-----jump to next loop
next            i
jump            in.eos loop_start
print           "JOB DONE!"
JOB DONE!
#-----end---------------------------------------------------------------
Total wall time: 0:00:39
